 +---------------------------------------------------------------+
 |                                                               |
 |        ####### #     # ####### ####### ####### ######         |
 |        #     # ##    # #          #    #       #     #        |
 |        #     # # #   # #          #    #       #     #        |
 |        #     # #  #  # #####      #    #####   ######         |
 |        #     # #   # # #          #    #       #              |
 |        #     # #    ## #          #    #       #              |
 |        ####### #     # #######    #    ####### #              |
 |                                                               |
 |        Linear-Scaling Ab Initio Total Energy Program          |
 |                                                               |
 |          Release for academic collaborators of ODG            |
 |                                             Version 4.3.3.11  |
 |                                                               |
 +---------------------------------------------------------------+
 |                                                               |
 |  Authors:                                                     |
 |  Jacek Dziedzic, Peter D. Haynes, Nicholas D. M. Hine,        |
 |  Arash. A. Mostofi, Mike C. Payne and Chris-Kriton Skylaris   |
 |                                                               |
 |  Contributors:                                                |
 |  J. Aarons, L. Andrinopoulos, P. W. Avraam, R. A. Bell,       |
 |  S. J. Clark, G. C. Constantinescu, F. Corsetti, N. Corsini,  |
 |  O. Dieguez, S. M. M. Dubois,  J. M. Escartin, H. H. Helal,   |
 |  Q. O. Hill, L. P. Lee, J.-H. Li, G. Moynihan, D. D. O`Regan, |
 |  O. K. Okan, M. J. S. Phipps, C. J. Pickard, M. I. J. Probert,|
 |  L. Ratcliff, M. Robinson, A. Ruiz Serrano, J. S. Spencer,    |
 |  E. W. Tait, G. Teobaldi, D. Turban, V. Vitale,               |
 |  K. A. Wilkinson, J. C. Womack and T. J. Zuehlsdorff          |
 |                                                               |
 |                                   Copyright (c) 2004-2017     |
 |                                                               |
 |  Please cite:                                                 |
 |  "Introducing ONETEP: Linear-scaling density functional       |
 |   simulations on parallel computers".                         |
 |   C.-K. Skylaris, P. D. Haynes, A. A. Mostofi, M. C. Payne.   |
 |   J. Chem. Phys. 122 084119 (2005).                           |
 |                                                               |
 |          in all publications arising from your use of ONETEP. |
 |                                                               |
 +---------------------------------------------------------------+
 |                                                               |
 |   ONETEP is based on developments described in the following  |
 |   publications:                                               |
 |                                                               |
 |  "Nonorthogonal generalized Wannier function pseudopotential  |
 |   plane-wave method".                                         |
 |   C.-K. Skylaris, A. A. Mostofi, P. D. Haynes, O. Dieguez,    |
 |   M. C. Payne.                                                |
 |   Phys. Rev. B 66 035119 (2002).                              |
 |                                                               |
 |  "Preconditioned iterative minimization for linear-scaling    |
 |   electronic structure calculations".                         |
 |   A. A. Mostofi, P. D. Haynes, C.-K. Skylaris, M. C. Payne.   |
 |   J. Chem. Phys. 119(17), pp.8842-8848 (2003).                |
 |                                                               |
 |  "Total-energy calculations on a real space grid with         |
 |   localized functions and a plane-wave basis".                |
 |   A. A. Mostofi, C.-K. Skylaris, P. D. Haynes, M. C. Payne.   |
 |   Comput. Phys. Commun. 147, pp.788-802 (2002).               |
 |                                                               |
 |  "Accurate kinetic energy evaluation in electronic structure  |
 |   calculations with localized functions on real space grids"  |
 |   C.-K. Skylaris, A. A. Mostofi, P. D. Haynes, C. J. Pickard, |
 |   M. C. Payne.                                                |
 |   Comput. Phys. Commun. 140, pp.315-322 (2001).               |
 |                                                               |
 |  "Accurate ionic forces and geometry optimization in linear-  |
 |   scaling density-functional theory with local orbitals"      |
 |   N. D. M. Hine, M. Robinson, P. D. Haynes, C.-K. Skylaris,   |
 |   M. C. Payne, and A. A. Mostofi.                             |
 |   Phys. Rev. B 83 195102 (2011).                              |
 |                                                               |
 +---------------------------------------------------------------+

Job started: 29-01-2018 19:27 (-0000)
 
If your calculation crashes here, before "Reading parameters..."
is displayed, then your stack size is insufficient.
If so, use "ulimit -s unlimited" at runtime.

Reading parameters from file "ddec.dat" ...

WARNING: "cutoff_energy" not specified, but "psinc_spacing" specified.
         Using the latter to set the KE cutoff energy to 1020.77404eV,
         thus *overriding* the default.

... done

Checking processes and threads...
   Determining the default number of threads...
      No default threads set at compilation time: defaulting to 1.
      OpenMP library call suggests 1 threads.
      Hybrid MPI-OpenMP compilation detected.
      Number of MPI processes > 1.
      OMP_NUM_THREADS environment variable present and
      its value matches the one obtained from the OpenMP library call.
      Using this value as default.
      Default threads: 1
      Default applies to threads_max and threads_num_fftboxes.
      Settings in the input file override this default.
   ... done

   Running with 160 MPI processes.
   There are 16 MPI processes running on the same node as the root process.
   Each MPI process is using: 
               1 threads for simulation cell FFTs.
               1 threads for parallel FFT box operations.
               1 threads for loops over batched FFT box operations.
               1 threads in other parallel regions.
... done

Basic input checks...... done

Reading geometry and species blocks from file "ddec.dat" ...
  <species_atomic_set> block not found: NGWF initialisation set to SOLVE
    
  PSINC grid spacing along a1 set to   0.450000000000a0 from input file.
  PSINC grid spacing along a2 set to   0.450000000000a0 from input file.
  PSINC grid spacing along a3 set to   0.450000000000a0 from input file.
  Number of PPD points along a3 set to 1.  This is 
  the default value, it may have been provided also in the input file.
... done
 Writing xyz coordinates to file "ddec.xyz" ... done


--------------------------------------------------------------------------------
---------------------------------- INPUT FILE ----------------------------------
--------------------------------------------------------------------------------

task          : singlepoint                                                     
xc_functional : PBE                                                             
charge        : -2.0                                                            
minit_lnv             : 8                                                       
maxit_lnv             : 8                                                       
lnv_check_trial_steps : T                                                       
maxit_pen              : 0                                                      
maxit_palser_mano      : -1                                                     
initial_dens_realspace : T                                                      
maxit_hotelling        : 100                                                    
ngwf_threshold_orig  : 1.0e-6                                                   
maxit_ngwf_cg        : 50                                                       
delta_e_conv         : T                                                        
elec_energy_tol      : 1.84873e-08 hartree                                      
is_implicit_solvent T                                                           
is_include_cavitation F                                                         
is_solvation_beta 1.3                                                           
is_density_threshold 0.00035                                                    
is_solvent_surface_tension 0.0000133859 ha/bohr**2                              
is_bulk_permittivity 80.00                                                      
is_smeared_ion_rep T                                                            
is_smeared_ion_width 0.8                                                        
is_discretization_order 10                                                      
is_dielectric_model fix_initial                                                 
output_detail        : VERBOSE                                                  
cube_format          : F                                                        
grd_format           : F                                                        
check_atoms          : T                                                        
do_properties        : T                                                        
write_forces         : F                                                        
write_xyz            : T                                                        
num_eigenvalues      : -1                                                       
polarisation_calculate : T                                                      
ddec_calculate       : T                                                        
ddec_multipole       : T                                                        
ddec_moment          : 3                                                        
ddec_classical_hirshfeld : F                                                    
ddec_maxit           : 1000                                                     
ddec_IH_fraction     : 0.02                                                     
ddec_write_rad : T                                                              
ddec_rad_npts  : 100                                                            
ddec_rad_rcut  : 5 ang                                                          
ddec_reshape_dens    : T                                                        
ddec_use_coredens    : T                                                        
ddec_c3_refdens      : T                                                        
ddec_core_correction : T                                                        
ddec_format_dens     : T                                                        
%block ddec_rcomp                                                               
H ALL  "/home/aa840/ONETEP-devel/c2_refdens/H_c2.refconf"                       
C ALL  "/home/aa840/ONETEP-devel/c2_refdens/C_c2.refconf"                       
C CORE "/home/aa840/ONETEP-devel/c2_refdens/C_c2.coreconf"                      
N ALL  "/home/aa840/ONETEP-devel/c2_refdens/N_c2.refconf"                       
N CORE "/home/aa840/ONETEP-devel/c2_refdens/N_c2.coreconf"                      
O ALL  "/home/aa840/ONETEP-devel/c2_refdens/O_c2.refconf"                       
O CORE "/home/aa840/ONETEP-devel/c2_refdens/O_c2.coreconf"                      
S ALL  "/home/aa840/ONETEP-devel/c2_refdens/S_c2.refconf"                       
S CORE "/home/aa840/ONETEP-devel/c2_refdens/S_c2.coreconf"                      
%endblock ddec_rcomp                                                            
write_denskern       : T                                                        
write_tightbox_ngwfs : T                                                        
read_denskern        : T                                                        
read_tightbox_ngwfs  : T                                                        
psinc_spacing 0.450 0.450 0.450                                                 
%block lattice_cart                                                             
144.9000000   0.000000000   0.000000000                                         
0.000000000   130.5000000   0.000000000                                         
0.000000000   0.000000000   116.1000000                                         
%endblock lattice_cart                                                          
%block species                                                                  
H   H   1 1 10.0                                                                
C   C   6 4 10.0                                                                
N   N   7 4 10.0                                                                
O   O   8 4 10.0                                                                
S   S  16 4 10.0                                                                
%endblock species                                                               
%block species_pot                                                              
H   "/home/aa840/ONETEP-devel/recpots/opium/h-optgga1.recpot"                   
C   "/home/aa840/ONETEP-devel/recpots/opium/c-optgga1.recpot"                   
N   "/home/aa840/ONETEP-devel/recpots/opium/n-optgga1.recpot"                   
O   "/home/aa840/ONETEP-devel/recpots/opium/o-optgga1.recpot"                   
S   "/home/aa840/ONETEP-devel/recpots/opium2/s-optgga1.recpot"                  
%endblock species_pot                                                           
%block positions_abs                                                            
     Hash =   000007778712967848687317
%endblock positions_abs                                                         

--------------------------------------------------------------------------------
-------------------------------- END INPUT FILE --------------------------------
--------------------------------------------------------------------------------


 
 ESDF WARNING(1
 ): "issmearedionwidth" (esdf_physical) has no units. Assume "bohr".
<<<<<<<<<<<<<<<<<<<<<<<<< Pseudopotential information >>>>>>>>>>>>>>>>>>>>>>>>>>
File: /home/aa840/ONETEP-devel/recpots/opium/n-optgga1.recpot [ 2001 points up to Gmax=  52.9 (1/bohr)]
  Atomic number:  7;  ionic charge:  5.000000
    Shell 1: l = 1; rc = 1.54 bohr
File: /home/aa840/ONETEP-devel/recpots/opium/h-optgga1.recpot [ 2001 points up to Gmax=  52.9 (1/bohr)]
  Atomic number:  1;  ionic charge:  1.000000
    Local potential
File: /home/aa840/ONETEP-devel/recpots/opium/c-optgga1.recpot [ 2001 points up to Gmax=  52.9 (1/bohr)]
  Atomic number:  6;  ionic charge:  4.000000
    Shell 1: l = 1; rc = 1.31 bohr
File: /home/aa840/ONETEP-devel/recpots/opium2/s-optgga1.recpot [ 2001 points up to Gmax=  52.9 (1/bohr)]
  Atomic number: 16;  ionic charge:  6.000000
    Shell 1: l = 1; rc = 1.37 bohr
    Shell 2: l = 2; rc = 1.31 bohr
File: /home/aa840/ONETEP-devel/recpots/opium/o-optgga1.recpot [ 2001 points up to Gmax=  52.9 (1/bohr)]
  Atomic number:  8;  ionic charge:  6.000000
    Shell 1: l = 1; rc = 1.54 bohr
<<<<<<<<<<<<<<<<<<<<<<<<<<<<<<<<<<<<<<<<>>>>>>>>>>>>>>>>>>>>>>>>>>>>>>>>>>>>>>>>

-------------------------- Atom counting information ---------------------------
Symbol    Natoms    Nngwfs    Nprojs
  N         69       276       207
  H        425       425         0
  C        274      1096       822
  S          1         4         8
  O         93       372       279
.......   ......    ......    ......
Totals:    862      2173      1316
--------------------------------------------------------------------------------

=============================== PSINC grid sizes ===============================
                      Simulation cell:  322 x 290 x 258
                              FFT-box:  135 x 135 x 135
                                  PPD:    7 x   5 x   1
Grid space d1=  0.450000000000a0 (KE cutoff=  37.51276Eh =1020.77404eV)
Grid space d2=  0.450000000000a0 (KE cutoff=  37.51276Eh =1020.77404eV)
Grid space d3=  0.450000000000a0 (KE cutoff=  37.51276Eh =1020.77404eV)
================================================================================

********************* Fourier parallelisation information **********************
       Coarse grid (whole simulation cell) dimensions:    322   290   258
          Real-space ('12') slabs/node (min max mean):      1     2     1
         Recip-space ('23') slabs/node (min max mean):      1     2     1
********************************************************************************

********************* Fourier parallelisation information **********************
       Double grid (whole simulation cell) dimensions:    644   580   516
          Real-space ('12') slabs/node (min max mean):      2     5     3
         Recip-space ('23') slabs/node (min max mean):      2     3     2
********************************************************************************
ONETEP fine grid is 644 x 580 x 516 gridpoints, 144.9000 x 130.5000 x 116.1000 bohr.
FD multigrid is     641 x 577 x 513 gridpoints, 144.2250 x 129.8250 x 115.4250 bohr.


Calculating local pseudopotential in open BC on a radial grid ...
Discrepancy between calculated realspace psloc and -Z/x on [5a0,226.948a0]:
max |rel. diff| # avg |rel. diff| #  avg rel. diff #  f # pseudopotential file
 0.000237489006    0.000009380636   0.000000465540   48  '/home/aa840/ONETEP-devel/recpots/opium/n-optgga1.recpot'
 0.003637136219    0.000198055050   0.000000910909   48  '/home/aa840/ONETEP-devel/recpots/opium/h-optgga1.recpot'
 0.000677016191    0.000033045834   0.000001047411   48  '/home/aa840/ONETEP-devel/recpots/opium/c-optgga1.recpot'
 0.000962723182    0.000052394508   0.000001378621   48  '/home/aa840/ONETEP-devel/recpots/opium2/s-optgga1.recpot'
 0.000200168264    0.000007200561   0.000000329762   48  '/home/aa840/ONETEP-devel/recpots/opium/o-optgga1.recpot'
... done

Atom SCF Calculation for H  : Z (AE atom) =   1 : Z (PS atom) =   1
Config String:
Orbitals (num,occ):  1     1.00
Orbitals   (num,l):  1        0
Real-space Grid (nr,dr,rmax): 1697    0.0058962264   10.0000000000
Spherical Bessel Basis (nsws,lmax,cutoff):   37    0  225.0765369060
Confining potential (l,width,scale):  0    3.0000000000  100.0000000000
  1   -0.3256954849   -0.2402867334    0.2820952004   -0.2424203212
  2   -0.3990272182   -0.2404235518    0.2866827837   -0.2460551902
  3   -0.4337531927   -0.2388946235    0.2890202165   -0.2491385989
  4   -0.4485272677   -0.2382478294    0.2898497979   -0.2505234070
  5   -0.4544930224   -0.2380694342    0.2900584771   -0.2510361655
  6   -0.4568927240   -0.2380366163    0.2900887832   -0.2512160028
  7   -0.4578698877   -0.2380374678    0.2900820877   -0.2512790018
  8   -0.4582738408   -0.2380425111    0.2900731183   -0.2513015698
  9   -0.4584430361   -0.2380460967    0.2900674296   -0.2513099110
 10   -0.4585146144   -0.2380480664    0.2900644330   -0.2513130934
 11   -0.4585451123   -0.2380490445    0.2900629763   -0.2513143417
 12   -0.4585581709   -0.2380495065    0.2900622970   -0.2513148423
 13   -0.4585637811   -0.2380497187    0.2900619876   -0.2513150465
 14   -0.4585661969   -0.2380498146    0.2900618485   -0.2513151307
 15   -0.4585672388   -0.2380498575    0.2900617866   -0.2513151657
 16   -0.4585676887   -0.2380498766    0.2900617592   -0.2513151804
 17   -0.4585678831   -0.2380498851    0.2900617471   -0.2513151866
 18   -0.4585679672   -0.2380498888    0.2900617417   -0.2513151892
Atom SCF converged after  18 iterations to a total energy of     -0.45856797

Atom SCF Calculation for C  : Z (AE atom) =   6 : Z (PS atom) =   4
Config String:
Orbitals (num,occ):  2     2.00 2.00
Orbitals   (num,l):  2        0    1
Real-space Grid (nr,dr,rmax): 1697    0.0058962264   10.0000000000
Spherical Bessel Basis (nsws,lmax,cutoff):   37    1  225.0765369060
Confining potential (l,width,scale):  0    3.0000000000  100.0000000000
Confining potential (l,width,scale):  1    3.0000000000  100.0000000000
  1   -5.1306021961   -1.2624462481    4.5135232065   -1.4493313821
  2   -5.2256116694   -1.3695245050    4.3992784861   -1.4155747485
  3   -5.2973817656   -1.3864547817    4.3818007252   -1.4130535383
  4   -5.3319959136   -1.3901260203    4.3779515413   -1.4136699742
  5   -5.3459930709   -1.3920802391    4.3758178843   -1.4138768846
  6   -5.3518266434   -1.3929434281    4.3748684334   -1.4139623656
  7   -5.3542727501   -1.3933088892    4.3744656112   -1.4139986777
  8   -5.3553002769   -1.3934615728    4.3742971270   -1.4140141232
  9   -5.3557321145   -1.3935251890    4.3742268643   -1.4140206457
 10   -5.3559136707   -1.3935516870    4.3741975739   -1.4140233886
 11   -5.3559900277   -1.3935627312    4.3741853563   -1.4140245389
 12   -5.3560221515   -1.3935673388    4.3741802553   -1.4140250204
 13   -5.3560356705   -1.3935692633    4.3741781231   -1.4140252215
 14   -5.3560413615   -1.3935700680    4.3741772309   -1.4140253055
 15   -5.3560437579   -1.3935704048    4.3741768571   -1.4140253404
 16   -5.3560447674   -1.3935705460    4.3741767003   -1.4140253550
 17   -5.3560451927   -1.3935706053    4.3741766344   -1.4140253610
 18   -5.3560453719   -1.3935706301    4.3741766068   -1.4140253635
 19   -5.3560454475   -1.3935706406    4.3741765951   -1.4140253646
Atom SCF converged after  19 iterations to a total energy of     -5.35604545

Atom SCF Calculation for N  : Z (AE atom) =   7 : Z (PS atom) =   5
Config String:
Orbitals (num,occ):  2     2.00 3.00
Orbitals   (num,l):  2        0    1
Real-space Grid (nr,dr,rmax): 1697    0.0058962264   10.0000000000
Spherical Bessel Basis (nsws,lmax,cutoff):   37    1  225.0765369060
Confining potential (l,width,scale):  0    3.0000000000  100.0000000000
Confining potential (l,width,scale):  1    3.0000000000  100.0000000000
  1   -7.6223620140   -3.2885704443    7.0523800102   -1.9351020948
  2   -9.5668107633   -2.0605075796    8.1960278773   -2.2278405661
  3   -9.5636078565   -2.1269542515    8.1249751940   -2.2151677382
  4   -9.5870480493   -2.1362209567    8.1150831426   -2.2155846775
  5   -9.5934776454   -2.1401454103    8.1108646830   -2.2155581151
  6   -9.5972047415   -2.1420047298    8.1088647164   -2.2156240608
  7   -9.5992446108   -2.1429489150    8.1078486250   -2.2156769524
  8   -9.6003514907   -2.1434344313    8.1073260781   -2.2157116567
  9   -9.6009511088   -2.1436847895    8.1070566666   -2.2157330901
 10   -9.6012757317   -2.1438140358    8.1069176282   -2.2157459334
 11   -9.6014513955   -2.1438808180    8.1068458162   -2.2157534846
 12   -9.6015464114   -2.1439153550    8.1068086956   -2.2157578654
 13   -9.6015977836   -2.1439332323    8.1067894908   -2.2157603812
 14   -9.6016255481   -2.1439424946    8.1067795460   -2.2157618144
 15   -9.6016405482   -2.1439472981    8.1067743914   -2.2157626256
 16   -9.6016486494   -2.1439497915    8.1067717171   -2.2157630823
 17   -9.6016530234   -2.1439510871    8.1067703283   -2.2157633381
 18   -9.6016553843   -2.1439517610    8.1067696064   -2.2157634810
 19   -9.6016566583   -2.1439521118    8.1067692308   -2.2157635604
 20   -9.6016573457   -2.1439522946    8.1067690352   -2.2157636045
 21   -9.6016577165   -2.1439523899    8.1067689332   -2.2157636288
 22   -9.6016579164   -2.1439524397    8.1067688800   -2.2157636423
 23   -9.6016580243   -2.1439524657    8.1067688522   -2.2157636497
 24   -9.6016580824   -2.1439524793    8.1067688377   -2.2157636538
Atom SCF converged after  24 iterations to a total energy of     -9.60165808

Atom SCF Calculation for O  : Z (AE atom) =   8 : Z (PS atom) =   6
Config String:
Orbitals (num,occ):  2     2.00 4.00
Orbitals   (num,l):  2        0    1
Real-space Grid (nr,dr,rmax): 1697    0.0058962264   10.0000000000
Spherical Bessel Basis (nsws,lmax,cutoff):   37    1  225.0765369060
Confining potential (l,width,scale):  0    3.0000000000  100.0000000000
Confining potential (l,width,scale):  1    3.0000000000  100.0000000000
  1   -9.8878402154   -7.1216128106   10.1554272146   -2.4512393158
  2  -15.3598953821   -3.1716264744   13.3430016060   -3.1729164945
  3  -15.5584309400   -3.0704840271   13.4529303030   -3.2054556180
  4  -15.5554350133   -3.0889812681   13.4337803951   -3.2050181696
  5  -15.5723182439   -3.0842602152   13.4391270985   -3.2079959409
  6  -15.5747232775   -3.0850264657   13.4383977408   -3.2084284516
  7  -15.5765180579   -3.0850994962   13.4383682525   -3.2087432787
  8  -15.5774744834   -3.0851502014   13.4383396497   -3.2089085606
  9  -15.5779772515   -3.0851878231   13.4383129204   -3.2089940336
 10  -15.5782414954   -3.0852132644   13.4382928366   -3.2090381947
 11  -15.5783804490   -3.0852295002   13.4382792346   -3.2090610198
 12  -15.5784535600   -3.0852394794   13.4382705497   -3.2090728255
 13  -15.5784920496   -3.0852454546   13.4382652102   -3.2090789373
 14  -15.5785123241   -3.0852489641   13.4382620127   -3.2090821045
 15  -15.5785230095   -3.0852509954   13.4382601345   -3.2090837474
 16  -15.5785286442   -3.0852521575   13.4382590474   -3.2090846005
 17  -15.5785316170   -3.0852528163   13.4382584254   -3.2090850439
 18  -15.5785331862   -3.0852531868   13.4382580728   -3.2090852747
 19  -15.5785340149   -3.0852533940   13.4382578745   -3.2090853949
 20  -15.5785344528   -3.0852535091   13.4382577636   -3.2090854575
 21  -15.5785346843   -3.0852535729   13.4382577020   -3.2090854902
 22  -15.5785348067   -3.0852536080   13.4382576679   -3.2090855073
 23  -15.5785348714   -3.0852536273   13.4382576491   -3.2090855163
Atom SCF converged after  23 iterations to a total energy of    -15.57853487

Atom SCF Calculation for S  : Z (AE atom) =  16 : Z (PS atom) =   6
Config String:
Orbitals (num,occ):  2     2.00 4.00
Orbitals   (num,l):  2        0    1
Real-space Grid (nr,dr,rmax): 1697    0.0058962264   10.0000000000
Spherical Bessel Basis (nsws,lmax,cutoff):   37    2  225.0765369060
Confining potential (l,width,scale):  0    3.0000000000  100.0000000000
Confining potential (l,width,scale):  1    3.0000000000  100.0000000000
  1   -9.5204578809   -0.9967084643   10.1554272146   -2.4512393158
  2   -8.7418093199   -2.6490305060    7.9906175951   -1.9609995582
  3   -9.6374033669   -2.3437922656    8.3157265040   -2.0528631603
  4   -9.8365811892   -2.3147433175    8.3499775571   -2.0680607999
  5   -9.9418365523   -2.2995040755    8.3678256189   -2.0768615918
  6   -9.9969973979   -2.2921415838    8.3763446657   -2.0814968586
  7  -10.0257627753   -2.2887423266    8.3802988561   -2.0838414502
  8  -10.0408190590   -2.2871324521    8.3821894812   -2.0850344256
  9  -10.0487268637   -2.2863481636    8.3831169066   -2.0856471667
 10  -10.0528858677   -2.2859624135    8.3835754195   -2.0859629272
 11  -10.0550746202   -2.2857726494    8.3838020554   -2.0861257643
 12  -10.0562271329   -2.2856795497    8.3839138010   -2.0862097628
 13  -10.0568343837   -2.2856340347    8.3839687335   -2.0862531106
 14  -10.0571545632   -2.2856118705    8.3839956506   -2.0862754935
 15  -10.0573235059   -2.2856011247    8.3840087935   -2.0862870594
 16  -10.0574127163   -2.2855959413    8.3840151855   -2.0862930406
 17  -10.0574598602   -2.2855934557    8.3840182799   -2.0862961364
 18  -10.0574847929   -2.2855922723    8.3840197700   -2.0862977401
 19  -10.0574979891   -2.2855917136    8.3840204830   -2.0862985716
 20  -10.0575049788   -2.2855914527    8.3840208215   -2.0862990032
 21  -10.0575086839   -2.2855913324    8.3840209808   -2.0862992274
 22  -10.0575106494   -2.2855912780    8.3840210548   -2.0862993439
 23  -10.0575116928   -2.2855912539    8.3840210888   -2.0862994046
 24  -10.0575122471   -2.2855912436    8.3840211040   -2.0862994362
 25  -10.0575125418   -2.2855912394    8.3840211106   -2.0862994527
 26  -10.0575126986   -2.2855912378    8.3840211134   -2.0862994613
 27  -10.0575127820   -2.2855912373    8.3840211145   -2.0862994658
Atom SCF converged after  27 iterations to a total energy of    -10.05751278

Determining parallel strategy ...
... using space-filling curve
... NGWF load balancing: max     15;  min     12;  average     14
... Projector load balancing: max     14;  min      6;  average      8
... done
Calculating direct Ion-Ion energy ...
Ion-Ion Energy        :    140637.63439572308562
Basis initialisation ...... NGWF spheres initialised
... Projector spheres initialised
... NGWF tight boxes initialised
... Tight-boxes gathered
... NGWF basis size (local,global):     391496  61782136
... Nonlocal pseudopotential projector initialisation
... done

========================== Sparse matrix information ===========================
                        Overlap matrix filling:  29.13%
                        Density kernel filling: 100.00%
              NGWF-Proj overlap matrix filling:   8.00%
                    Hamiltonian matrix filling:  31.57%
                  NGWF diagonal matrix filling:   0.16%
                             KS matrix filling: 100.00% 
                           KSKS matrix filling: 100.00% 
================================================================================

Sparse matrix initialisation ... done

Generating smeared ion density ... done
Smeared ion self correction:     -4945.886921
Smeared ion non-self correction: -140622.082956
  
Reading NGWFs from file "ddec.tightbox_ngwfs" ...  done
============ Calculation of NGWF S^-1 using Hotelling algorithm ================ 
         Iteration  |  Frobenius norm and Maximum abs value    (of I-S*S_n^-1)   
               1       0.45627309E+02     0.98643733E+00
               2       0.44764870E+02     0.97314595E+00
               3       0.43324843E+02     0.94734265E+00
               4       0.41182076E+02     0.89863755E+00
               5       0.38358193E+02     0.81158309E+00
               6       0.34975869E+02     0.72015443E+00
               7       0.31319970E+02     0.67638120E+00
               8       0.27840820E+02     0.63650371E+00
               9       0.24400273E+02     0.58485001E+00
              10       0.19980750E+02     0.50466852E+00
              11       0.14099670E+02     0.40120363E+00
              12       0.77262753E+01     0.26341446E+00
              13       0.28371053E+01     0.12305684E+00
              14       0.54568043E+00     0.32791876E-01
              15       0.35112504E-01     0.27654598E-02
              16       0.28408657E-03     0.22459865E-04
              17       0.28599497E-07     0.17805912E-08
              18       0.48685975E-13     0.37747583E-14
================================================================================
Calculating local pseudopotential in open BC on the fine real space grid ...
... done


Reading density kernel from file "ddec.dkn" ... done

>>> Optimising kernel for current NGWFs:

Generating solute cavity for implicit solvation ... done
MG BCs: +ve charge blocks (gridpoints):     95503 (   10590651).
MG BCs: -ve charge blocks (gridpoints):     13179 (     463455).
MG BCs:     Elided blocks (gridpoints):   1445662 (  178682535).
MG BCs: Computational effort saved:  99.9427%.
MG BCs: Charge after coarse-graining:   1.9992624.
MG (Call #1) Solving with 2nd order solver... done
MG Starting defect correction with a discretization order of: 10
  iter |ST+PT defect|   |BT defect|  |tot defect|        |error|  |err.eqn res.|
MG   1  0.8025660E+01 0.0000000E+00 0.8025660E+01 -> 0.6954989E+00 0.1610295E-04
MG   2  0.7399905E+00 0.0000000E+00 0.7399905E+00 -> 0.2794998E-01 0.3066202E-05
MG   3  0.1419345E+00 0.0000000E+00 0.1419345E+00 -> 0.3293924E-02 0.4202045E-06
MG   4  0.4027259E-01 0.0000000E+00 0.4027259E-01 -> 0.7395832E-03 0.1959116E-06
MG   5  0.1489444E-01 0.0000000E+00 0.1489444E-01 -> 0.2272947E-03 0.9678254E-06
MG   6  0.6740643E-02 0.0000000E+00 0.6740643E-02 -> 0.8484020E-04 0.6328482E-06
MG   7  0.3529828E-02 0.0000000E+00 0.3529828E-02 -> 0.3631546E-04 0.4234668E-06
MG   8  0.2032635E-02 0.0000000E+00 0.2032635E-02 -> 0.1722878E-04 0.2863456E-06
MG   9  0.1240339E-02 0.0000000E+00 0.1240339E-02 -> 0.8852396E-05 0.1950478E-06
MG Defect correct solution obtained.
MG  - final defect norm:              0.1240E-02
MG  - final error norm:               0.8852E-05
MG  - defect-correction iterations: 9
MG Hartree energy from (\int phi*rho dr):               432.479209
MG Hartree energy from (\int eps (grad phi)^2 dr):      432.472158
MG Discrepancy due to finite box and discretization:     -0.007051 (  -0.00163%)
MG Correction to account for finite box:                  0.000348
MG Remaining discrepancy, due to discretization:         -0.006702 (  -0.00155%)


>>> Density kernel optimised for the current NGWF basis:
     ~~~~~~~~~~~~~~~~~~~~~~~~~~~~~~~~~~~~~~~~~~~~~~~~~~~~~~~~~~~
     Total energy                =  -3.97796635875784E+03  Eh
     Estimated bandgap           =   1.2178E-01  Eh
     RMS occupancy error         =   1.2452E-15
     [H,K] commutator            =   2.4259E-04
     Occupancy bounds            = [  0.000:  1.000]
     ~~~~~~~~~~~~~~~~~~~~~~~~~~~~~~~~~~~~~~~~~~~~~~~~~~~~~~~~~~~




################################################################################
########################### NGWF CG iteration  001 #############################
################################################################################
****** Reciprocal space K.E. preconditioning with k_zero =  3.0000 a0^-1 *******

>>> Checking for convergence of NGWFs:   NOT CONVERGED
  ========================================================================
         NGWF RMS gradient =  2.5603E-05 >  1.0000E-06  | above tolerance
  ========================================================================

>>> Improving NGWFs using line search:
============ Calculation of NGWF S^-1 using Hotelling algorithm ================ 
         Iteration  |  Frobenius norm and Maximum abs value    (of I-S*S_n^-1)   
               1       0.14381227E-01     0.13229950E-02
               2       0.11585139E-04     0.33367701E-05
               3       0.63045247E-10     0.21517677E-10
               4       0.37181063E-13     0.22204460E-14
================================================================================

Reusing previously generated solute cavity.
MG BCs: +ve charge blocks (gridpoints):     95514 (   10592340).
MG BCs: -ve charge blocks (gridpoints):     13181 (     463554).
MG BCs:     Elided blocks (gridpoints):   1445651 (  178680747).
MG BCs: Computational effort saved:  99.9427%.
MG BCs: Charge after coarse-graining:   1.9992622.
MG (Call #2) Solving with 2nd order solver... done
MG Starting defect correction with a discretization order of: 10
  iter |ST+PT defect|   |BT defect|  |tot defect|        |error|  |err.eqn res.|
MG   1  0.8025790E+01 0.0000000E+00 0.8025790E+01 -> 0.6954987E+00 0.1610076E-04
MG   2  0.7400229E+00 0.0000000E+00 0.7400229E+00 -> 0.2795042E-01 0.3066430E-05
MG   3  0.1419501E+00 0.0000000E+00 0.1419501E+00 -> 0.3294033E-02 0.4204360E-06
MG   4  0.4028491E-01 0.0000000E+00 0.4028491E-01 -> 0.7396159E-03 0.1961220E-06
MG   5  0.1490516E-01 0.0000000E+00 0.1490516E-01 -> 0.2273091E-03 0.9694817E-06
MG   6  0.6749384E-02 0.0000000E+00 0.6749384E-02 -> 0.8484875E-04 0.6339660E-06
MG   7  0.3536404E-02 0.0000000E+00 0.3536404E-02 -> 0.3632123E-04 0.4242244E-06
MG   8  0.2037318E-02 0.0000000E+00 0.2037318E-02 -> 0.1723282E-04 0.2868624E-06
MG   9  0.1243577E-02 0.0000000E+00 0.1243577E-02 -> 0.8855221E-05 0.1954023E-06
MG Defect correct solution obtained.
MG  - final defect norm:              0.1244E-02
MG  - final error norm:               0.8855E-05
MG  - defect-correction iterations: 9
MG Hartree energy from (\int phi*rho dr):               432.485048
MG Hartree energy from (\int eps (grad phi)^2 dr):      432.477996
MG Discrepancy due to finite box and discretization:     -0.007052 (  -0.00163%)
MG Correction to account for finite box:                  0.000349
MG Remaining discrepancy, due to discretization:         -0.006703 (  -0.00155%)
============ Calculation of NGWF S^-1 using Hotelling algorithm ================ 
         Iteration  |  Frobenius norm and Maximum abs value    (of I-S*S_n^-1)   
               1       0.37202444E+00     0.32613343E-01
               2       0.74297152E-02     0.20292570E-02
               3       0.24620147E-04     0.79712692E-05
               4       0.36546307E-09     0.12304269E-09
               5       0.30024597E-13     0.19984014E-14
================================================================================

Reusing previously generated solute cavity.
MG BCs: +ve charge blocks (gridpoints):     95922 (   10634328).
MG BCs: -ve charge blocks (gridpoints):     13236 (     465628).
MG BCs:     Elided blocks (gridpoints):   1445244 (  178636685).
MG BCs: Computational effort saved:  99.9425%.
MG BCs: Charge after coarse-graining:   1.9992584.
MG (Call #3) Solving with 2nd order solver... done
MG Starting defect correction with a discretization order of: 10
  iter |ST+PT defect|   |BT defect|  |tot defect|        |error|  |err.eqn res.|
MG   1  0.8029076E+01 0.0000000E+00 0.8029076E+01 -> 0.6955094E+00 0.1607968E-04
MG   2  0.7408312E+00 0.0000000E+00 0.7408312E+00 -> 0.2796119E-01 0.3073519E-05
MG   3  0.1423541E+00 0.0000000E+00 0.1423541E+00 -> 0.3296641E-02 0.4267072E-06
MG   4  0.4061453E-01 0.0000000E+00 0.4061453E-01 -> 0.7404045E-03 0.2018480E-06
MG   5  0.1519375E-01 0.0000000E+00 0.1519375E-01 -> 0.2276673E-03 0.1013421E-05
MG   6  0.6983784E-02 0.0000000E+00 0.6983784E-02 -> 0.8506623E-04 0.6636240E-06
MG   7  0.3711794E-02 0.0000000E+00 0.3711794E-02 -> 0.3647041E-04 0.4443397E-06
MG   8  0.2161666E-02 0.0000000E+00 0.2161666E-02 -> 0.1733812E-04 0.3005963E-06
MG   9  0.1329269E-02 0.0000000E+00 0.1329269E-02 -> 0.8929036E-05 0.2048287E-06
MG Defect correct solution obtained.
MG  - final defect norm:              0.1329E-02
MG  - final error norm:               0.8929E-05
MG  - defect-correction iterations: 9
MG Hartree energy from (\int phi*rho dr):               432.690473
MG Hartree energy from (\int eps (grad phi)^2 dr):      432.683390
MG Discrepancy due to finite box and discretization:     -0.007083 (  -0.00164%)
MG Correction to account for finite box:                  0.000360
MG Remaining discrepancy, due to discretization:         -0.006723 (  -0.00155%)
============ Calculation of NGWF S^-1 using Hotelling algorithm ================ 
         Iteration  |  Frobenius norm and Maximum abs value    (of I-S*S_n^-1)   
               1       0.18046059E-02     0.16006659E-03
               2       0.17356971E-06     0.48970814E-07
               3       0.53446681E-13     0.35527137E-14
================================================================================
------------------------------- NGWF line search -------------------------------
RMS gradient                =       0.00002560290893
Trial step length           =               0.122474
Gradient along search dir.  =         -0.06547709737
Functional at step 0        =   -3977.96635875783977
Functional at step 1        =   -3977.97422672939138
Rejected quadratic step     =               3.245674
Functional at new step 1    =   -3978.07310333594796
Functional predicted        =   -3978.07310556814855
Selected quadratic step     =               3.260585
Conjugate gradients coeff.  =               0.000000
--------------------------- NGWF line search finished --------------------------
                                               
Writing NGWFs to file "ddec.tightbox_ngwfs"....  done

>>> Optimising kernel for current NGWFs:
   Initial electron number for spin 1:    2432.25399713
     Final electron number for spin 1:    2432.00000000

=================== Penalty functional idempotency correction ==================
 RMS occupancy error at iteration   1:  0.001193 (step -0.4546 Ne1=   2432.0000)
 RMS occupancy error at iteration   2:  0.000056 (step -0.5004 Ne1=   2432.0000)
            Final RMS occupancy error   :  0.000000 (Ne1=   2432.0000)
               Final occupancy bounds   : [  0.0000,  1.0000]
================================================================================

................................................................................
<<<<<<<<<<<<<< LNV (Original version) density kernel optimisation >>>>>>>>>>>>>>
~~~~~~~~~~~~~~~~~~~~~~~~~~~~~~~~~~~~~~~~~~~~~~~~~~~~~~~~~~~~~~~~~~~~~~~~~~~~~~~~
   iter  |      energy (Eh)       | rms gradient |  commutator  |   dE (Eh)

Reusing previously generated solute cavity.
MG BCs: +ve charge blocks (gridpoints):     95925 (   10634624).
MG BCs: -ve charge blocks (gridpoints):     13236 (     465643).
MG BCs:     Elided blocks (gridpoints):   1445241 (  178636374).
MG BCs: Computational effort saved:  99.9425%.
MG BCs: Charge after coarse-graining:   1.9992584.
MG (Call #4) Solving with 2nd order solver... done
MG Starting defect correction with a discretization order of: 10
  iter |ST+PT defect|   |BT defect|  |tot defect|        |error|  |err.eqn res.|
MG   1  0.8029119E+01 0.0000000E+00 0.8029119E+01 -> 0.6955094E+00 0.1607543E-04
MG   2  0.7408437E+00 0.0000000E+00 0.7408437E+00 -> 0.2796136E-01 0.3073461E-05
MG   3  0.1423586E+00 0.0000000E+00 0.1423586E+00 -> 0.3296694E-02 0.4267213E-06
MG   4  0.4061722E-01 0.0000000E+00 0.4061722E-01 -> 0.7404202E-03 0.2018190E-06
MG   5  0.1519579E-01 0.0000000E+00 0.1519579E-01 -> 0.2276732E-03 0.1013694E-05
MG   6  0.6985347E-02 0.0000000E+00 0.6985347E-02 -> 0.8506895E-04 0.6638097E-06
MG   7  0.3712934E-02 0.0000000E+00 0.3712934E-02 -> 0.3647191E-04 0.4444654E-06
MG   8  0.2162465E-02 0.0000000E+00 0.2162465E-02 -> 0.1733903E-04 0.3006823E-06
MG   9  0.1329817E-02 0.0000000E+00 0.1329817E-02 -> 0.8929620E-05 0.2048880E-06
MG Defect correct solution obtained.
MG  - final defect norm:              0.1330E-02
MG  - final error norm:               0.8930E-05
MG  - defect-correction iterations: 9
MG Hartree energy from (\int phi*rho dr):               432.693021
MG Hartree energy from (\int eps (grad phi)^2 dr):      432.685937
MG Discrepancy due to finite box and discretization:     -0.007083 (  -0.00164%)
MG Correction to account for finite box:                  0.000360
MG Remaining discrepancy, due to discretization:         -0.006723 (  -0.00155%)
      ideal mu1:      -0.478406741217
             Q0:   -3978.068598658836
             G0:      -0.146882376819
   RMS gradient:       0.000176370164

Reusing previously generated solute cavity.
MG BCs: +ve charge blocks (gridpoints):     95705 (   10609944).
MG BCs: -ve charge blocks (gridpoints):     13252 (     466359).
MG BCs:     Elided blocks (gridpoints):   1445460 (  178660338).
MG BCs: Computational effort saved:  99.9426%.
MG BCs: Charge after coarse-graining:   1.9992533.
MG (Call #5) Solving with 2nd order solver... done
MG Starting defect correction with a discretization order of: 10
  iter |ST+PT defect|   |BT defect|  |tot defect|        |error|  |err.eqn res.|
MG   1  0.8031383E+01 0.0000000E+00 0.8031383E+01 -> 0.6954606E+00 0.1604583E-04
MG   2  0.7413968E+00 0.0000000E+00 0.7413968E+00 -> 0.2797020E-01 0.3074632E-05
MG   3  0.1425473E+00 0.0000000E+00 0.1425473E+00 -> 0.3299100E-02 0.4284543E-06
MG   4  0.4072157E-01 0.0000000E+00 0.4072157E-01 -> 0.7411408E-03 0.2030137E-06
MG   5  0.1527046E-01 0.0000000E+00 0.1527046E-01 -> 0.2279429E-03 0.1023008E-05
MG   6  0.7040701E-02 0.0000000E+00 0.7040701E-02 -> 0.8519243E-04 0.6699387E-06
MG   7  0.3752534E-02 0.0000000E+00 0.3752534E-02 -> 0.3653758E-04 0.4485455E-06
MG   8  0.2189866E-02 0.0000000E+00 0.2189866E-02 -> 0.1737747E-04 0.3034280E-06
MG   9  0.1348434E-02 0.0000000E+00 0.1348434E-02 -> 0.8953349E-05 0.2067497E-06
MG Defect correct solution obtained.
MG  - final defect norm:              0.1348E-02
MG  - final error norm:               0.8953E-05
MG  - defect-correction iterations: 9
MG Hartree energy from (\int phi*rho dr):               432.416049
MG Hartree energy from (\int eps (grad phi)^2 dr):      432.408940
MG Discrepancy due to finite box and discretization:     -0.007109 (  -0.00164%)
MG Correction to account for finite box:                  0.000376
MG Remaining discrepancy, due to discretization:         -0.006733 (  -0.00156%)
     Trial step:       0.500000000000
             Q1:   -3978.128811284114
 Quadratic coef:       0.013228563132
 Linear coef   :      -0.073441188410
           Qmin:   -3978.170529762414
Quadratic minimum step length (  1.387928297256) accepted
    Initial Ne1:    2431.99964554
      Final Ne1:    2432.00000000

=================== Penalty functional idempotency correction ==================
 RMS occupancy error at iteration   1:  0.002048 (step -0.4274 Ne1=   2432.0000)
 RMS occupancy error at iteration   2:  0.000071 (step -0.4979 Ne1=   2432.0000)
 RMS occupancy error at iteration   3:  0.000000 (step -0.5000 Ne1=   2432.0000)
            Final RMS occupancy error   :  0.000000 (Ne1=   2432.0000)
               Final occupancy bounds   : [  0.0000,  1.0000]
================================================================================

    1        -3.978068598659E+03     1.7637E-04     1.5759E-04

Reusing previously generated solute cavity.
MG BCs: +ve charge blocks (gridpoints):     95323 (   10561589).
MG BCs: -ve charge blocks (gridpoints):     13276 (     467462).
MG BCs:     Elided blocks (gridpoints):   1445839 (  178707590).
MG BCs: Computational effort saved:  99.9428%.
MG BCs: Charge after coarse-graining:   1.9992444.
MG (Call #6) Solving with 2nd order solver... done
MG Starting defect correction with a discretization order of: 10
  iter |ST+PT defect|   |BT defect|  |tot defect|        |error|  |err.eqn res.|
MG   1  0.8035143E+01 0.0000000E+00 0.8035143E+01 -> 0.6953840E+00 0.1601396E-04
MG   2  0.7422979E+00 0.0000000E+00 0.7422979E+00 -> 0.2798473E-01 0.3077681E-05
MG   3  0.1428609E+00 0.0000000E+00 0.1428609E+00 -> 0.3302974E-02 0.4314815E-06
MG   4  0.4090009E-01 0.0000000E+00 0.4090009E-01 -> 0.7423028E-03 0.2051710E-06
MG   5  0.1540019E-01 0.0000000E+00 0.1540019E-01 -> 0.2283823E-03 0.1039347E-05
MG   6  0.7137273E-02 0.0000000E+00 0.7137273E-02 -> 0.8539616E-04 0.6807136E-06
MG   7  0.3821616E-02 0.0000000E+00 0.3821616E-02 -> 0.3664723E-04 0.4557307E-06
MG   8  0.2237624E-02 0.0000000E+00 0.2237624E-02 -> 0.1744224E-04 0.3082692E-06
MG   9  0.1380857E-02 0.0000000E+00 0.1380857E-02 -> 0.8993580E-05 0.2100358E-06
MG Defect correct solution obtained.
MG  - final defect norm:              0.1381E-02
MG  - final error norm:               0.8994E-05
MG  - defect-correction iterations: 9
MG Hartree energy from (\int phi*rho dr):               431.969824
MG Hartree energy from (\int eps (grad phi)^2 dr):      431.962671
MG Discrepancy due to finite box and discretization:     -0.007153 (  -0.00166%)
MG Correction to account for finite box:                  0.000403
MG Remaining discrepancy, due to discretization:         -0.006749 (  -0.00156%)
      ideal mu1:      -0.475831664686
             Q0:   -3978.172781489411
             G0:      -0.077860727587
   RMS gradient:       0.000124063688

Reusing previously generated solute cavity.
MG BCs: +ve charge blocks (gridpoints):     95081 (   10531441).
MG BCs: -ve charge blocks (gridpoints):     13272 (     467301).
MG BCs:     Elided blocks (gridpoints):   1446084 (  178737899).
MG BCs: Computational effort saved:  99.9429%.
MG BCs: Charge after coarse-graining:   1.9992391.
MG (Call #7) Solving with 2nd order solver... done
MG Starting defect correction with a discretization order of: 10
  iter |ST+PT defect|   |BT defect|  |tot defect|        |error|  |err.eqn res.|
MG   1  0.8036043E+01 0.0000000E+00 0.8036043E+01 -> 0.6952964E+00 0.1602349E-04
MG   2  0.7429701E+00 0.0000000E+00 0.7429701E+00 -> 0.2799030E-01 0.3078820E-05
MG   3  0.1430639E+00 0.0000000E+00 0.1430639E+00 -> 0.3306319E-02 0.4323966E-06
MG   4  0.4097318E-01 0.0000000E+00 0.4097318E-01 -> 0.7433469E-03 0.2059727E-06
MG   5  0.1543508E-01 0.0000000E+00 0.1543508E-01 -> 0.2287314E-03 0.1041842E-05
MG   6  0.7157753E-02 0.0000000E+00 0.7157753E-02 -> 0.8552657E-04 0.6824093E-06
MG   7  0.3834803E-02 0.0000000E+00 0.3834803E-02 -> 0.3670054E-04 0.4569085E-06
MG   8  0.2246373E-02 0.0000000E+00 0.2246373E-02 -> 0.1746557E-04 0.3090923E-06
MG   9  0.1386716E-02 0.0000000E+00 0.1386716E-02 -> 0.9004341E-05 0.2106141E-06
MG Defect correct solution obtained.
MG  - final defect norm:              0.1387E-02
MG  - final error norm:               0.9004E-05
MG  - defect-correction iterations: 9
MG Hartree energy from (\int phi*rho dr):               432.101300
MG Hartree energy from (\int eps (grad phi)^2 dr):      432.094125
MG Discrepancy due to finite box and discretization:     -0.007175 (  -0.00166%)
MG Correction to account for finite box:                  0.000416
MG Remaining discrepancy, due to discretization:         -0.006759 (  -0.00156%)
     Trial step:       0.833045105999
             Q1:   -3978.198951926723
 Quadratic coef:       0.038691060754
 Linear coef   :      -0.064861498066
           Qmin:   -3978.199964861030
Quadratic minimum step length (  0.698256295871) accepted
    Initial Ne1:    2431.99991176
      Final Ne1:    2432.00000000

=================== Penalty functional idempotency correction ==================
 RMS occupancy error at iteration   1:  0.001366 (step -0.4491 Ne1=   2432.0000)
 RMS occupancy error at iteration   2:  0.000034 (step -0.4990 Ne1=   2432.0000)
            Final RMS occupancy error   :  0.000000 (Ne1=   2432.0000)
               Final occupancy bounds   : [  0.0000,  1.0000]
================================================================================

    2        -3.978172781489E+03     1.2406E-04     1.1085E-04    -1.0418E-01

Reusing previously generated solute cavity.
MG BCs: +ve charge blocks (gridpoints):     95082 (   10532416).
MG BCs: -ve charge blocks (gridpoints):     13271 (     467350).
MG BCs:     Elided blocks (gridpoints):   1446082 (  178736875).
MG BCs: Computational effort saved:  99.9429%.
MG BCs: Charge after coarse-graining:   1.9992392.
MG (Call #8) Solving with 2nd order solver... done
MG Starting defect correction with a discretization order of: 10
  iter |ST+PT defect|   |BT defect|  |tot defect|        |error|  |err.eqn res.|
MG   1  0.8035970E+01 0.0000000E+00 0.8035970E+01 -> 0.6953094E+00 0.1602079E-04
MG   2  0.7428809E+00 0.0000000E+00 0.7428809E+00 -> 0.2798969E-01 0.3078547E-05
MG   3  0.1430368E+00 0.0000000E+00 0.1430368E+00 -> 0.3305867E-02 0.4322857E-06
MG   4  0.4096389E-01 0.0000000E+00 0.4096389E-01 -> 0.7432042E-03 0.2058593E-06
MG   5  0.1543097E-01 0.0000000E+00 0.1543097E-01 -> 0.2286840E-03 0.1041587E-05
MG   6  0.7155500E-02 0.0000000E+00 0.7155500E-02 -> 0.8550919E-04 0.6822294E-06
MG   7  0.3833405E-02 0.0000000E+00 0.3833405E-02 -> 0.3669370E-04 0.4567793E-06
MG   8  0.2245459E-02 0.0000000E+00 0.2245459E-02 -> 0.1746276E-04 0.3089997E-06
MG   9  0.1386106E-02 0.0000000E+00 0.1386106E-02 -> 0.9003158E-05 0.2105477E-06
MG Defect correct solution obtained.
MG  - final defect norm:              0.1386E-02
MG  - final error norm:               0.9003E-05
MG  - defect-correction iterations: 9
MG Hartree energy from (\int phi*rho dr):               432.074420
MG Hartree energy from (\int eps (grad phi)^2 dr):      432.067246
MG Discrepancy due to finite box and discretization:     -0.007173 (  -0.00166%)
MG Correction to account for finite box:                  0.000416
MG Remaining discrepancy, due to discretization:         -0.006757 (  -0.00156%)
      ideal mu1:      -0.475825419742
             Q0:   -3978.201764091325
             G0:      -0.040715147998
   RMS gradient:       0.000088682525

Reusing previously generated solute cavity.
MG BCs: +ve charge blocks (gridpoints):     94970 (   10520319).
MG BCs: -ve charge blocks (gridpoints):     13267 (     467072).
MG BCs:     Elided blocks (gridpoints):   1446195 (  178749250).
MG BCs: Computational effort saved:  99.9430%.
MG BCs: Charge after coarse-graining:   1.9992367.
MG (Call #9) Solving with 2nd order solver... done
MG Starting defect correction with a discretization order of: 10
  iter |ST+PT defect|   |BT defect|  |tot defect|        |error|  |err.eqn res.|
MG   1  0.8034052E+01 0.0000000E+00 0.8034052E+01 -> 0.6954664E+00 0.1606260E-04
MG   2  0.7420540E+00 0.0000000E+00 0.7420540E+00 -> 0.2798034E-01 0.3076338E-05
MG   3  0.1427802E+00 0.0000000E+00 0.1427802E+00 -> 0.3301946E-02 0.4310051E-06
MG   4  0.4085263E-01 0.0000000E+00 0.4085263E-01 -> 0.7420200E-03 0.2053312E-06
MG   5  0.1536467E-01 0.0000000E+00 0.1536467E-01 -> 0.2282752E-03 0.1034673E-05
MG   6  0.7110490E-02 0.0000000E+00 0.7110490E-02 -> 0.8534402E-04 0.6775808E-06
MG   7  0.3802353E-02 0.0000000E+00 0.3802353E-02 -> 0.3661741E-04 0.4536294E-06
MG   8  0.2224264E-02 0.0000000E+00 0.2224264E-02 -> 0.1742365E-04 0.3068434E-06
MG   9  0.1371759E-02 0.0000000E+00 0.1371759E-02 -> 0.8981529E-05 0.2090617E-06
MG Defect correct solution obtained.
MG  - final defect norm:              0.1372E-02
MG  - final error norm:               0.8982E-05
MG  - defect-correction iterations: 9
MG Hartree energy from (\int phi*rho dr):               432.293817
MG Hartree energy from (\int eps (grad phi)^2 dr):      432.286654
MG Discrepancy due to finite box and discretization:     -0.007164 (  -0.00166%)
MG Correction to account for finite box:                  0.000419
MG Remaining discrepancy, due to discretization:         -0.006745 (  -0.00156%)
     Trial step:       0.762678824937
             Q1:   -3978.215745215886
 Quadratic coef:       0.017071456671
 Linear coef   :      -0.031052581232
           Qmin:   -3978.215885071446
Quadratic minimum step length (  0.693647490704) accepted
    Initial Ne1:    2432.00000794
      Final Ne1:    2432.00000000

=================== Penalty functional idempotency correction ==================
 RMS occupancy error at iteration   1:  0.001154 (step -0.4558 Ne1=   2432.0000)
 RMS occupancy error at iteration   2:  0.000024 (step -0.4993 Ne1=   2432.0000)
            Final RMS occupancy error   :  0.000000 (Ne1=   2432.0000)
               Final occupancy bounds   : [  0.0000,  1.0000]
================================================================================

    3        -3.978201764091E+03     8.8683E-05     7.9238E-05    -2.8983E-02

Reusing previously generated solute cavity.
MG BCs: +ve charge blocks (gridpoints):     94935 (   10516817).
MG BCs: -ve charge blocks (gridpoints):     13266 (     467094).
MG BCs:     Elided blocks (gridpoints):   1446230 (  178752730).
MG BCs: Computational effort saved:  99.9430%.
MG BCs: Charge after coarse-graining:   1.9992363.
MG (Call #10) Solving with 2nd order solver... done
MG Starting defect correction with a discretization order of: 10
  iter |ST+PT defect|   |BT defect|  |tot defect|        |error|  |err.eqn res.|
MG   1  0.8034266E+01 0.0000000E+00 0.8034266E+01 -> 0.6954517E+00 0.1605791E-04
MG   2  0.7421395E+00 0.0000000E+00 0.7421395E+00 -> 0.2798135E-01 0.3076491E-05
MG   3  0.1428066E+00 0.0000000E+00 0.1428066E+00 -> 0.3302350E-02 0.4311397E-06
MG   4  0.4086404E-01 0.0000000E+00 0.4086404E-01 -> 0.7421415E-03 0.2053858E-06
MG   5  0.1537147E-01 0.0000000E+00 0.1537147E-01 -> 0.2283171E-03 0.1035374E-05
MG   6  0.7115114E-02 0.0000000E+00 0.7115114E-02 -> 0.8536099E-04 0.6780494E-06
MG   7  0.3805546E-02 0.0000000E+00 0.3805546E-02 -> 0.3662528E-04 0.4539455E-06
MG   8  0.2226444E-02 0.0000000E+00 0.2226444E-02 -> 0.1742770E-04 0.3070591E-06
MG   9  0.1373235E-02 0.0000000E+00 0.1373235E-02 -> 0.8983784E-05 0.2092098E-06
MG Defect correct solution obtained.
MG  - final defect norm:              0.1373E-02
MG  - final error norm:               0.8984E-05
MG  - defect-correction iterations: 9
MG Hartree energy from (\int phi*rho dr):               432.271494
MG Hartree energy from (\int eps (grad phi)^2 dr):      432.264328
MG Discrepancy due to finite box and discretization:     -0.007166 (  -0.00166%)
MG Correction to account for finite box:                  0.000420
MG Remaining discrepancy, due to discretization:         -0.006746 (  -0.00156%)
      ideal mu1:      -0.476368762732
             Q0:   -3978.217159063264
             G0:      -0.011605885710
   RMS gradient:       0.000046820524

Reusing previously generated solute cavity.
MG BCs: +ve charge blocks (gridpoints):     94905 (   10513942).
MG BCs: -ve charge blocks (gridpoints):     13264 (     467018).
MG BCs:     Elided blocks (gridpoints):   1446260 (  178755681).
MG BCs: Computational effort saved:  99.9430%.
MG BCs: Charge after coarse-graining:   1.9992355.
MG (Call #11) Solving with 2nd order solver... done
MG Starting defect correction with a discretization order of: 10
  iter |ST+PT defect|   |BT defect|  |tot defect|        |error|  |err.eqn res.|
MG   1  0.8033935E+01 0.0000000E+00 0.8033935E+01 -> 0.6954066E+00 0.1605397E-04
MG   2  0.7421457E+00 0.0000000E+00 0.7421457E+00 -> 0.2798049E-01 0.3075768E-05
MG   3  0.1427993E+00 0.0000000E+00 0.1427993E+00 -> 0.3302446E-02 0.4308944E-06
MG   4  0.4085193E-01 0.0000000E+00 0.4085193E-01 -> 0.7421630E-03 0.2051708E-06
MG   5  0.1535954E-01 0.0000000E+00 0.1535954E-01 -> 0.2283162E-03 0.1033720E-05
MG   6  0.7105308E-02 0.0000000E+00 0.7105308E-02 -> 0.8535639E-04 0.6769624E-06
MG   7  0.3798280E-02 0.0000000E+00 0.3798280E-02 -> 0.3662108E-04 0.4532259E-06
MG   8  0.2221353E-02 0.0000000E+00 0.2221353E-02 -> 0.1742460E-04 0.3065785E-06
MG   9  0.1369760E-02 0.0000000E+00 0.1369760E-02 -> 0.8981665E-05 0.2088867E-06
MG Defect correct solution obtained.
MG  - final defect norm:              0.1370E-02
MG  - final error norm:               0.8982E-05
MG  - defect-correction iterations: 9
MG Hartree energy from (\int phi*rho dr):               432.222729
MG Hartree energy from (\int eps (grad phi)^2 dr):      432.215563
MG Discrepancy due to finite box and discretization:     -0.007166 (  -0.00166%)
MG Correction to account for finite box:                  0.000420
MG Remaining discrepancy, due to discretization:         -0.006746 (  -0.00156%)
     Trial step:       0.727344659106
             Q1:   -3978.221539749356
 Quadratic coef:       0.004060792894
 Linear coef   :      -0.008441478986
           Qmin:   -3978.221546049336
Quadratic minimum step length (  0.755993326430) accepted
    Initial Ne1:    2432.00003311
      Final Ne1:    2432.00000000

=================== Penalty functional idempotency correction ==================
 RMS occupancy error at iteration   1:  0.000500 (step -0.4794 Ne1=   2432.0000)
 RMS occupancy error at iteration   2:  0.000005 (step -0.5000 Ne1=   2432.0000)
            Final RMS occupancy error   :  0.000000 (Ne1=   2432.0000)
               Final occupancy bounds   : [  0.0000,  1.0000]
================================================================================

    4        -3.978217159063E+03     4.6821E-05     4.1834E-05    -1.5395E-02

Reusing previously generated solute cavity.
MG BCs: +ve charge blocks (gridpoints):     94900 (   10512951).
MG BCs: -ve charge blocks (gridpoints):     13264 (     467016).
MG BCs:     Elided blocks (gridpoints):   1446265 (  178756674).
MG BCs: Computational effort saved:  99.9430%.
MG BCs: Charge after coarse-graining:   1.9992355.
MG (Call #12) Solving with 2nd order solver... done
MG Starting defect correction with a discretization order of: 10
  iter |ST+PT defect|   |BT defect|  |tot defect|        |error|  |err.eqn res.|
MG   1  0.8033926E+01 0.0000000E+00 0.8033926E+01 -> 0.6954048E+00 0.1605375E-04
MG   2  0.7421472E+00 0.0000000E+00 0.7421472E+00 -> 0.2798047E-01 0.3075734E-05
MG   3  0.1427994E+00 0.0000000E+00 0.1427994E+00 -> 0.3302455E-02 0.4308870E-06
MG   4  0.4085161E-01 0.0000000E+00 0.4085161E-01 -> 0.7421655E-03 0.2051632E-06
MG   5  0.1535916E-01 0.0000000E+00 0.1535916E-01 -> 0.2283168E-03 0.1033664E-05
MG   6  0.7104984E-02 0.0000000E+00 0.7104984E-02 -> 0.8535643E-04 0.6769251E-06
MG   7  0.3798037E-02 0.0000000E+00 0.3798037E-02 -> 0.3662102E-04 0.4532012E-06
MG   8  0.2221181E-02 0.0000000E+00 0.2221181E-02 -> 0.1742453E-04 0.3065620E-06
MG   9  0.1369643E-02 0.0000000E+00 0.1369643E-02 -> 0.8981615E-05 0.2088756E-06
MG Defect correct solution obtained.
MG  - final defect norm:              0.1370E-02
MG  - final error norm:               0.8982E-05
MG  - defect-correction iterations: 9
MG Hartree energy from (\int phi*rho dr):               432.220624
MG Hartree energy from (\int eps (grad phi)^2 dr):      432.213458
MG Discrepancy due to finite box and discretization:     -0.007166 (  -0.00166%)
MG Correction to account for finite box:                  0.000420
MG Remaining discrepancy, due to discretization:         -0.006746 (  -0.00156%)
      ideal mu1:      -0.476335667218
             Q0:   -3978.221776075108
             G0:      -0.004024849350
   RMS gradient:       0.000028183348

Reusing previously generated solute cavity.
MG BCs: +ve charge blocks (gridpoints):     94889 (   10510226).
MG BCs: -ve charge blocks (gridpoints):     13265 (     467094).
MG BCs:     Elided blocks (gridpoints):   1446276 (  178759321).
MG BCs: Computational effort saved:  99.9430%.
MG BCs: Charge after coarse-graining:   1.9992354.
MG (Call #13) Solving with 2nd order solver... done
MG Starting defect correction with a discretization order of: 10
  iter |ST+PT defect|   |BT defect|  |tot defect|        |error|  |err.eqn res.|
MG   1  0.8034206E+01 0.0000000E+00 0.8034206E+01 -> 0.6954052E+00 0.1603418E-04
MG   2  0.7421845E+00 0.0000000E+00 0.7421845E+00 -> 0.2798149E-01 0.3075842E-05
MG   3  0.1428099E+00 0.0000000E+00 0.1428099E+00 -> 0.3302613E-02 0.4307814E-06
MG   4  0.4085747E-01 0.0000000E+00 0.4085747E-01 -> 0.7422050E-03 0.2048152E-06
MG   5  0.1536361E-01 0.0000000E+00 0.1536361E-01 -> 0.2283306E-03 0.1033922E-05
MG   6  0.7108462E-02 0.0000000E+00 0.7108462E-02 -> 0.8536242E-04 0.6771006E-06
MG   7  0.3800626E-02 0.0000000E+00 0.3800626E-02 -> 0.3662404E-04 0.4533145E-06
MG   8  0.2223027E-02 0.0000000E+00 0.2223027E-02 -> 0.1742622E-04 0.3066377E-06
MG   9  0.1370927E-02 0.0000000E+00 0.1370927E-02 -> 0.8982625E-05 0.2089266E-06
MG Defect correct solution obtained.
MG  - final defect norm:              0.1371E-02
MG  - final error norm:               0.8983E-05
MG  - defect-correction iterations: 9
MG Hartree energy from (\int phi*rho dr):               432.185380
MG Hartree energy from (\int eps (grad phi)^2 dr):      432.178213
MG Discrepancy due to finite box and discretization:     -0.007167 (  -0.00166%)
MG Correction to account for finite box:                  0.000420
MG Remaining discrepancy, due to discretization:         -0.006746 (  -0.00156%)
     Trial step:       0.741530652299
             Q1:   -3978.223273194249
 Quadratic coef:       0.001487430023
 Linear coef   :      -0.002984549164
           Qmin:   -3978.223273210028
Quadratic minimum step length (  0.743945817423) accepted
    Initial Ne1:    2432.00001076
      Final Ne1:    2432.00000000

=================== Penalty functional idempotency correction ==================
 RMS occupancy error at iteration   1:  0.000234 (step -0.4899 Ne1=   2432.0000)
 RMS occupancy error at iteration   2:  0.000001 (step -0.5000 Ne1=   2432.0000)
            Final RMS occupancy error   :  0.000000 (Ne1=   2432.0000)
               Final occupancy bounds   : [  0.0000,  1.0000]
================================================================================

    5        -3.978221776075E+03     2.8183E-05     2.5182E-05    -4.6170E-03

Reusing previously generated solute cavity.
MG BCs: +ve charge blocks (gridpoints):     94888 (   10509952).
MG BCs: -ve charge blocks (gridpoints):     13265 (     467094).
MG BCs:     Elided blocks (gridpoints):   1446277 (  178759595).
MG BCs: Computational effort saved:  99.9430%.
MG BCs: Charge after coarse-graining:   1.9992354.
MG (Call #14) Solving with 2nd order solver... done
MG Starting defect correction with a discretization order of: 10
  iter |ST+PT defect|   |BT defect|  |tot defect|        |error|  |err.eqn res.|
MG   1  0.8034209E+01 0.0000000E+00 0.8034209E+01 -> 0.6954052E+00 0.1603409E-04
MG   2  0.7421849E+00 0.0000000E+00 0.7421849E+00 -> 0.2798150E-01 0.3075841E-05
MG   3  0.1428100E+00 0.0000000E+00 0.1428100E+00 -> 0.3302615E-02 0.4307817E-06
MG   4  0.4085753E-01 0.0000000E+00 0.4085753E-01 -> 0.7422056E-03 0.2048143E-06
MG   5  0.1536365E-01 0.0000000E+00 0.1536365E-01 -> 0.2283308E-03 0.1033926E-05
MG   6  0.7108490E-02 0.0000000E+00 0.7108490E-02 -> 0.8536250E-04 0.6771026E-06
MG   7  0.3800646E-02 0.0000000E+00 0.3800646E-02 -> 0.3662408E-04 0.4533158E-06
MG   8  0.2223041E-02 0.0000000E+00 0.2223041E-02 -> 0.1742624E-04 0.3066386E-06
MG   9  0.1370936E-02 0.0000000E+00 0.1370936E-02 -> 0.8982637E-05 0.2089272E-06
MG Defect correct solution obtained.
MG  - final defect norm:              0.1371E-02
MG  - final error norm:               0.8983E-05
MG  - defect-correction iterations: 9
MG Hartree energy from (\int phi*rho dr):               432.185206
MG Hartree energy from (\int eps (grad phi)^2 dr):      432.178039
MG Discrepancy due to finite box and discretization:     -0.007167 (  -0.00166%)
MG Correction to account for finite box:                  0.000420
MG Remaining discrepancy, due to discretization:         -0.006746 (  -0.00156%)
      ideal mu1:      -0.476280886640
             Q0:   -3978.223322916310
             G0:      -0.001486825290
   RMS gradient:       0.000017387548

Reusing previously generated solute cavity.
MG BCs: +ve charge blocks (gridpoints):     94877 (   10508614).
MG BCs: -ve charge blocks (gridpoints):     13267 (     467109).
MG BCs:     Elided blocks (gridpoints):   1446288 (  178760918).
MG BCs: Computational effort saved:  99.9430%.
MG BCs: Charge after coarse-graining:   1.9992354.
MG (Call #15) Solving with 2nd order solver... done
MG Starting defect correction with a discretization order of: 10
  iter |ST+PT defect|   |BT defect|  |tot defect|        |error|  |err.eqn res.|
MG   1  0.8034418E+01 0.0000000E+00 0.8034418E+01 -> 0.6954109E+00 0.1604009E-04
MG   2  0.7422344E+00 0.0000000E+00 0.7422344E+00 -> 0.2798234E-01 0.3075976E-05
MG   3  0.1428246E+00 0.0000000E+00 0.1428246E+00 -> 0.3302848E-02 0.4308933E-06
MG   4  0.4086345E-01 0.0000000E+00 0.4086345E-01 -> 0.7422759E-03 0.2049534E-06
MG   5  0.1536684E-01 0.0000000E+00 0.1536684E-01 -> 0.2283557E-03 0.1034298E-05
MG   6  0.7110462E-02 0.0000000E+00 0.7110462E-02 -> 0.8537275E-04 0.6773529E-06
MG   7  0.3801916E-02 0.0000000E+00 0.3801916E-02 -> 0.3662881E-04 0.4534865E-06
MG   8  0.2223866E-02 0.0000000E+00 0.2223866E-02 -> 0.1742863E-04 0.3067555E-06
MG   9  0.1371474E-02 0.0000000E+00 0.1371474E-02 -> 0.8983924E-05 0.2090078E-06
MG Defect correct solution obtained.
MG  - final defect norm:              0.1371E-02
MG  - final error norm:               0.8984E-05
MG  - defect-correction iterations: 9
MG Hartree energy from (\int phi*rho dr):               432.199945
MG Hartree energy from (\int eps (grad phi)^2 dr):      432.192777
MG Discrepancy due to finite box and discretization:     -0.007168 (  -0.00166%)
MG Correction to account for finite box:                  0.000421
MG Remaining discrepancy, due to discretization:         -0.006747 (  -0.00156%)
     Trial step:       0.742737253185
             Q1:   -3978.223779276537
 Quadratic coef:       0.000647960305
 Linear coef   :      -0.001104320532
           Qmin:   -3978.223793440441
Quadratic minimum step length (  0.632924572986) accepted
    Initial Ne1:    2432.00000344
      Final Ne1:    2432.00000000

=================== Penalty functional idempotency correction ==================
 RMS occupancy error at iteration   1:  0.000093 (step -0.4959 Ne1=   2432.0000)
 RMS occupancy error at iteration   2:  0.000000 (step -0.5000 Ne1=   2432.0000)
            Final RMS occupancy error   :  0.000000 (Ne1=   2432.0000)
               Final occupancy bounds   : [  0.0000,  1.0000]
================================================================================

    6        -3.978223322916E+03     1.7388E-05     1.5536E-05    -1.5468E-03

Reusing previously generated solute cavity.
MG BCs: +ve charge blocks (gridpoints):     94877 (   10508705).
MG BCs: -ve charge blocks (gridpoints):     13267 (     467116).
MG BCs:     Elided blocks (gridpoints):   1446288 (  178760820).
MG BCs: Computational effort saved:  99.9430%.
MG BCs: Charge after coarse-graining:   1.9992354.
MG (Call #16) Solving with 2nd order solver... done
MG Starting defect correction with a discretization order of: 10
  iter |ST+PT defect|   |BT defect|  |tot defect|        |error|  |err.eqn res.|
MG   1  0.8034387E+01 0.0000000E+00 0.8034387E+01 -> 0.6954100E+00 0.1603919E-04
MG   2  0.7422272E+00 0.0000000E+00 0.7422272E+00 -> 0.2798222E-01 0.3075956E-05
MG   3  0.1428225E+00 0.0000000E+00 0.1428225E+00 -> 0.3302814E-02 0.4308770E-06
MG   4  0.4086259E-01 0.0000000E+00 0.4086259E-01 -> 0.7422657E-03 0.2049329E-06
MG   5  0.1536638E-01 0.0000000E+00 0.1536638E-01 -> 0.2283521E-03 0.1034244E-05
MG   6  0.7110179E-02 0.0000000E+00 0.7110179E-02 -> 0.8537126E-04 0.6773166E-06
MG   7  0.3801734E-02 0.0000000E+00 0.3801734E-02 -> 0.3662812E-04 0.4534617E-06
MG   8  0.2223748E-02 0.0000000E+00 0.2223748E-02 -> 0.1742828E-04 0.3067385E-06
MG   9  0.1371397E-02 0.0000000E+00 0.1371397E-02 -> 0.8983738E-05 0.2089960E-06
MG Defect correct solution obtained.
MG  - final defect norm:              0.1371E-02
MG  - final error norm:               0.8984E-05
MG  - defect-correction iterations: 9
MG Hartree energy from (\int phi*rho dr):               432.197714
MG Hartree energy from (\int eps (grad phi)^2 dr):      432.190547
MG Discrepancy due to finite box and discretization:     -0.007168 (  -0.00166%)
MG Correction to account for finite box:                  0.000421
MG Remaining discrepancy, due to discretization:         -0.006747 (  -0.00156%)
      ideal mu1:      -0.476250193718
             Q0:   -3978.223801032087
             G0:      -0.000423987630
   RMS gradient:       0.000009475821

Reusing previously generated solute cavity.
MG BCs: +ve charge blocks (gridpoints):     94875 (   10508523).
MG BCs: -ve charge blocks (gridpoints):     13263 (     467080).
MG BCs:     Elided blocks (gridpoints):   1446290 (  178761038).
MG BCs: Computational effort saved:  99.9430%.
MG BCs: Charge after coarse-graining:   1.9992354.
MG (Call #17) Solving with 2nd order solver... done
MG Starting defect correction with a discretization order of: 10
  iter |ST+PT defect|   |BT defect|  |tot defect|        |error|  |err.eqn res.|
MG   1  0.8034265E+01 0.0000000E+00 0.8034265E+01 -> 0.6954105E+00 0.1603812E-04
MG   2  0.7422016E+00 0.0000000E+00 0.7422016E+00 -> 0.2798172E-01 0.3075969E-05
MG   3  0.1428164E+00 0.0000000E+00 0.1428164E+00 -> 0.3302689E-02 0.4308736E-06
MG   4  0.4086108E-01 0.0000000E+00 0.4086108E-01 -> 0.7422299E-03 0.2049411E-06
MG   5  0.1536612E-01 0.0000000E+00 0.1536612E-01 -> 0.2283401E-03 0.1034273E-05
MG   6  0.7110261E-02 0.0000000E+00 0.7110261E-02 -> 0.8536667E-04 0.6773278E-06
MG   7  0.3801880E-02 0.0000000E+00 0.3801880E-02 -> 0.3662617E-04 0.4534649E-06
MG   8  0.2223878E-02 0.0000000E+00 0.2223878E-02 -> 0.1742737E-04 0.3067380E-06
MG   9  0.1371495E-02 0.0000000E+00 0.1371495E-02 -> 0.8983276E-05 0.2089940E-06
MG Defect correct solution obtained.
MG  - final defect norm:              0.1371E-02
MG  - final error norm:               0.8983E-05
MG  - defect-correction iterations: 9
MG Hartree energy from (\int phi*rho dr):               432.203744
MG Hartree energy from (\int eps (grad phi)^2 dr):      432.196577
MG Discrepancy due to finite box and discretization:     -0.007167 (  -0.00166%)
MG Correction to account for finite box:                  0.000421
MG Remaining discrepancy, due to discretization:         -0.006747 (  -0.00156%)
     Trial step:       0.685635952101
             Q1:   -3978.223898810393
 Quadratic coef:       0.000192922857
 Linear coef   :      -0.000290701162
           Qmin:   -3978.223910541099
Quadratic minimum step length (  0.516567014583) accepted
    Initial Ne1:    2432.00000000
      Final Ne1:    2432.00000000

=================== Penalty functional idempotency correction ==================
 RMS occupancy error at iteration   1:  0.000000 (step -0.5000 Ne1=   2432.0000)
            Final RMS occupancy error   :  0.000000 (Ne1=   2432.0000)
               Final occupancy bounds   : [  0.0000,  1.0000]
================================================================================

    7        -3.978223801032E+03     9.4758E-06     8.4667E-06    -4.7812E-04

Reusing previously generated solute cavity.
MG BCs: +ve charge blocks (gridpoints):     94875 (   10508558).
MG BCs: -ve charge blocks (gridpoints):     13264 (     467095).
MG BCs:     Elided blocks (gridpoints):   1446290 (  178760988).
MG BCs: Computational effort saved:  99.9430%.
MG BCs: Charge after coarse-graining:   1.9992354.
MG (Call #18) Solving with 2nd order solver... done
MG Starting defect correction with a discretization order of: 10
  iter |ST+PT defect|   |BT defect|  |tot defect|        |error|  |err.eqn res.|
MG   1  0.8034295E+01 0.0000000E+00 0.8034295E+01 -> 0.6954104E+00 0.1603838E-04
MG   2  0.7422079E+00 0.0000000E+00 0.7422079E+00 -> 0.2798184E-01 0.3075965E-05
MG   3  0.1428179E+00 0.0000000E+00 0.1428179E+00 -> 0.3302720E-02 0.4308745E-06
MG   4  0.4086145E-01 0.0000000E+00 0.4086145E-01 -> 0.7422388E-03 0.2049391E-06
MG   5  0.1536618E-01 0.0000000E+00 0.1536618E-01 -> 0.2283431E-03 0.1034265E-05
MG   6  0.7110241E-02 0.0000000E+00 0.7110241E-02 -> 0.8536780E-04 0.6773250E-06
MG   7  0.3801844E-02 0.0000000E+00 0.3801844E-02 -> 0.3662665E-04 0.4534641E-06
MG   8  0.2223846E-02 0.0000000E+00 0.2223846E-02 -> 0.1742760E-04 0.3067381E-06
MG   9  0.1371471E-02 0.0000000E+00 0.1371471E-02 -> 0.8983390E-05 0.2089945E-06
MG Defect correct solution obtained.
MG  - final defect norm:              0.1371E-02
MG  - final error norm:               0.8983E-05
MG  - defect-correction iterations: 9
MG Hartree energy from (\int phi*rho dr):               432.202243
MG Hartree energy from (\int eps (grad phi)^2 dr):      432.195076
MG Discrepancy due to finite box and discretization:     -0.007167 (  -0.00166%)
MG Correction to account for finite box:                  0.000421
MG Remaining discrepancy, due to discretization:         -0.006747 (  -0.00156%)
      ideal mu1:      -0.476278925710
    8        -3.978223910543E+03     5.8193E-06     5.1996E-06    -1.0951E-04
Finished density kernel iterations (   8)

Writing density kernel to file "ddec.dkn" ... done


>>> Density kernel optimised for the current NGWF basis:
     ~~~~~~~~~~~~~~~~~~~~~~~~~~~~~~~~~~~~~~~~~~~~~~~~~~~~~~~~~~~
     Total energy                =  -3.97822391054255E+03  Eh
     Estimated bandgap           =   9.7330E-02  Eh
     RMS occupancy error         =   6.2767E-12
     [H,K] commutator            =   5.1996E-06
     Occupancy bounds            = [  0.000:  1.000]
     ~~~~~~~~~~~~~~~~~~~~~~~~~~~~~~~~~~~~~~~~~~~~~~~~~~~~~~~~~~~




################################################################################
########################### NGWF CG iteration  002 #############################
################################################################################
****** Reciprocal space K.E. preconditioning with k_zero =  3.0000 a0^-1 *******

>>> Checking for convergence of NGWFs:   NOT CONVERGED
  ========================================================================
         NGWF RMS gradient =  2.2018E-05 >  1.0000E-06  | above tolerance
  Maximum change in energy =  2.9878E-04 >  1.8487E-08  | above tolerance
  ========================================================================

>>> Improving NGWFs using line search:
============ Calculation of NGWF S^-1 using Hotelling algorithm ================ 
         Iteration  |  Frobenius norm and Maximum abs value    (of I-S*S_n^-1)   
               1       0.86421649E-01     0.49831996E-02
               2       0.30644276E-03     0.47780154E-04
               3       0.14039116E-07     0.44110415E-08
               4       0.50279707E-13     0.33306691E-14
================================================================================

Reusing previously generated solute cavity.
MG BCs: +ve charge blocks (gridpoints):     95031 (   10526938).
MG BCs: -ve charge blocks (gridpoints):     13278 (     467344).
MG BCs:     Elided blocks (gridpoints):   1446134 (  178742359).
MG BCs: Computational effort saved:  99.9429%.
MG BCs: Charge after coarse-graining:   1.9992347.
MG (Call #19) Solving with 2nd order solver... done
MG Starting defect correction with a discretization order of: 10
  iter |ST+PT defect|   |BT defect|  |tot defect|        |error|  |err.eqn res.|
MG   1  0.8033808E+01 0.0000000E+00 0.8033808E+01 -> 0.6955314E+00 0.1605192E-04
MG   2  0.7419961E+00 0.0000000E+00 0.7419961E+00 -> 0.2797880E-01 0.3076966E-05
MG   3  0.1427952E+00 0.0000000E+00 0.1427952E+00 -> 0.3301634E-02 0.4313179E-06
MG   4  0.4087644E-01 0.0000000E+00 0.4087644E-01 -> 0.7420172E-03 0.2054942E-06
MG   5  0.1538695E-01 0.0000000E+00 0.1538695E-01 -> 0.2283024E-03 0.1037675E-05
MG   6  0.7128462E-02 0.0000000E+00 0.7128462E-02 -> 0.8536578E-04 0.6796337E-06
MG   7  0.3815632E-02 0.0000000E+00 0.3815632E-02 -> 0.3663191E-04 0.4550371E-06
MG   8  0.2233603E-02 0.0000000E+00 0.2233603E-02 -> 0.1743301E-04 0.3078165E-06
MG   9  0.1378174E-02 0.0000000E+00 0.1378174E-02 -> 0.8987580E-05 0.2097377E-06
MG Defect correct solution obtained.
MG  - final defect norm:              0.1378E-02
MG  - final error norm:               0.8988E-05
MG  - defect-correction iterations: 9
MG Hartree energy from (\int phi*rho dr):               432.424030
MG Hartree energy from (\int eps (grad phi)^2 dr):      432.416863
MG Discrepancy due to finite box and discretization:     -0.007166 (  -0.00166%)
MG Correction to account for finite box:                  0.000422
MG Remaining discrepancy, due to discretization:         -0.006744 (  -0.00156%)
============ Calculation of NGWF S^-1 using Hotelling algorithm ================ 
         Iteration  |  Frobenius norm and Maximum abs value    (of I-S*S_n^-1)   
               1       0.92117972E-01     0.51090188E-02
               2       0.35527466E-03     0.50193064E-04
               3       0.16635484E-07     0.48726250E-08
               4       0.51713213E-13     0.26645353E-14
================================================================================
------------------------------- NGWF line search -------------------------------
RMS gradient                =       0.00002201822361
Trial step length           =               0.631932
Gradient along search dir.  =         -0.03574364005
Functional at step 0        =   -3978.22391054255422
Functional at step 1        =   -3978.24094646418234
Functional predicted        =   -3978.24688564445387
Selected quadratic step     =               1.285549
Conjugate gradients coeff.  =               0.739581
--------------------------- NGWF line search finished --------------------------
                                               
Writing NGWFs to file "ddec.tightbox_ngwfs"....  done

>>> Optimising kernel for current NGWFs:
   Initial electron number for spin 1:    2432.27191530
     Final electron number for spin 1:    2432.00000000

=================== Penalty functional idempotency correction ==================
 RMS occupancy error at iteration   1:  0.000568 (step -0.4854 Ne1=   2432.0000)
[...]
  Atom Type and Number
 C     773
  Error in Potential 
     0.9564395
  VdW Radius Used 
     1.9300000
  Atom Type and Number
 H     774
  Error in Potential 
     1.0780523
  VdW Radius Used 
     1.4400000
  Atom Type and Number
 O     775
  Error in Potential 
     1.0378562
  VdW Radius Used 
     1.7500000
 Positions
    28.5135168    33.0623367    33.7218978
    27.7940549    33.3616475    33.5408246
    28.3698564    33.0694120    34.3044024
    28.3336514    33.1371644    33.6766295
    28.5545245    33.0505470    33.7630860
 Off-Center Point Charge Charges
    -1.9798620
     0.1022497
    -0.0838247
    -0.2890638
     1.5506388
 Error in Potential After
     0.3102611
  Atom Type and Number
 H     776
  Error in Potential 
     0.5587318
  VdW Radius Used 
     1.4400000
  Atom Type and Number
 C     777
  Error in Potential 
     0.6657437
  VdW Radius Used 
     1.9300000
  Atom Type and Number
 H     778
  Error in Potential 
     0.7332608
  VdW Radius Used 
     1.4400000
  Atom Type and Number
 H     779
  Error in Potential 
     0.6859583
  VdW Radius Used 
     1.4400000
  Atom Type and Number
 H     780
  Error in Potential 
     0.7661177
  VdW Radius Used 
     1.4400000
  Atom Type and Number
 C     781
  Error in Potential 
     0.7260106
  VdW Radius Used 
     1.9300000
  Atom Type and Number
 O     782
  Error in Potential 
     0.5769566
  VdW Radius Used 
     1.7500000
  Atom Type and Number
 N     783
  Error in Potential 
     1.0665558
  VdW Radius Used 
     1.8300000
 Positions
    31.9054968    30.8024097    31.5427788
    32.0406141    30.6967219    31.5729384
 Off-Center Point Charge Charges
    -0.9342486
     0.4210000
 Error in Potential After
     0.3904299
  Atom Type and Number
 H     784
  Error in Potential 
     0.7304002
  VdW Radius Used 
     1.4400000
  Atom Type and Number
 C     785
  Error in Potential 
     1.0535557
  VdW Radius Used 
     1.9300000
  Atom Type and Number
 H     786
  Error in Potential 
     0.7697527
  VdW Radius Used 
     1.4400000
  Atom Type and Number
 C     787
  Error in Potential 
     0.7220994
  VdW Radius Used 
     1.9300000
  Atom Type and Number
 H     788
  Error in Potential 
     0.7704849
  VdW Radius Used 
     1.4400000
  Atom Type and Number
 H     789
  Error in Potential 
     0.7420336
  VdW Radius Used 
     1.4400000
  Atom Type and Number
 C     790
  Error in Potential 
     0.4973340
  VdW Radius Used 
     1.9300000
  Atom Type and Number
 C     791
  Error in Potential 
     0.6104896
  VdW Radius Used 
     1.9300000
  Atom Type and Number
 H     792
  Error in Potential 
     0.7519886
  VdW Radius Used 
     1.4400000
  Atom Type and Number
 C     793
  Error in Potential 
     0.6784465
  VdW Radius Used 
     1.9300000
  Atom Type and Number
 H     794
  Error in Potential 
     0.8753657
  VdW Radius Used 
     1.4400000
  Atom Type and Number
 C     795
  Error in Potential 
     0.7283136
  VdW Radius Used 
     1.9300000
  Atom Type and Number
 H     796
  Error in Potential 
     0.9245515
  VdW Radius Used 
     1.4400000
  Atom Type and Number
 C     797
  Error in Potential 
     0.6499451
  VdW Radius Used 
     1.9300000
  Atom Type and Number
 H     798
  Error in Potential 
     0.8229270
  VdW Radius Used 
     1.4400000
  Atom Type and Number
 C     799
  Error in Potential 
     0.6346759
  VdW Radius Used 
     1.9300000
  Atom Type and Number
 H     800
  Error in Potential 
     0.8069082
  VdW Radius Used 
     1.4400000
  Atom Type and Number
 C     801
  Error in Potential 
     0.8674688
  VdW Radius Used 
     1.9300000
  Atom Type and Number
 O     802
  Error in Potential 
     0.5032784
  VdW Radius Used 
     1.7500000
  Atom Type and Number
 N     803
  Error in Potential 
     1.2126933
  VdW Radius Used 
     1.8300000
 Positions
    35.1069187    30.0335387    33.0406718
    35.2930812    30.2363805    33.2277412
 Off-Center Point Charge Charges
    -0.7341822
     0.2310000
 Error in Potential After
     0.3507395
  Atom Type and Number
 H     804
  Error in Potential 
     0.6654786
  VdW Radius Used 
     1.4400000
  Atom Type and Number
 C     805
  Error in Potential 
     1.0851720
  VdW Radius Used 
     1.9300000
  Atom Type and Number
 H     806
  Error in Potential 
     0.7553080
  VdW Radius Used 
     1.4400000
  Atom Type and Number
 C     807
  Error in Potential 
     1.0308563
  VdW Radius Used 
     1.9300000
  Atom Type and Number
 H     808
  Error in Potential 
     0.9273563
  VdW Radius Used 
     1.4400000
  Atom Type and Number
 O     809
  Error in Potential 
     1.0798346
  VdW Radius Used 
     1.7500000
 Positions
    34.5213757    31.0760877    35.6632777
    33.7839559    31.5756485    35.4329495
    34.6192863    30.8162250    34.7861888
    34.6144770    31.0303442    35.7156901
 Off-Center Point Charge Charges
    -1.9924692
     0.0830486
     0.0218019
     1.1751494
 Error in Potential After
     0.3448555
  Atom Type and Number
 H     810
  Error in Potential 
     0.6294507
  VdW Radius Used 
     1.4400000
  Atom Type and Number
 C     811
  Error in Potential 
     0.6007372
  VdW Radius Used 
     1.9300000
  Atom Type and Number
 H     812
  Error in Potential 
     0.7665863
  VdW Radius Used 
     1.4400000
  Atom Type and Number
 H     813
  Error in Potential 
     0.6073982
  VdW Radius Used 
     1.4400000
  Atom Type and Number
 H     814
  Error in Potential 
     0.6569035
  VdW Radius Used 
     1.4400000
  Atom Type and Number
 C     815
  Error in Potential 
     0.7745211
  VdW Radius Used 
     1.9300000
  Atom Type and Number
 O     816
  Error in Potential 
     0.5051812
  VdW Radius Used 
     1.7500000
  Atom Type and Number
 N     817
  Error in Potential 
     1.0850923
  VdW Radius Used 
     1.8300000
 Positions
    38.5756867    30.6157207    33.6356568
    37.6926014    30.8490191    33.7458035
    38.3899598    29.9750383    33.5036282
    38.6973648    30.5841124    33.6235593
 Off-Center Point Charge Charges
    -1.3109171
     0.0285884
     0.0443310
     0.7670805
 Error in Potential After
     0.2721680
  Atom Type and Number
 H     818
  Error in Potential 
     0.6619514
  VdW Radius Used 
     1.4400000
  Atom Type and Number
 C     819
  Error in Potential 
     0.9945560
  VdW Radius Used 
     1.9300000
  Atom Type and Number
 H     820
  Error in Potential 
     0.7280291
  VdW Radius Used 
     1.4400000
  Atom Type and Number
 C     821
  Error in Potential 
     0.7216484
  VdW Radius Used 
     1.9300000
  Atom Type and Number
 H     822
  Error in Potential 
     1.0105902
  VdW Radius Used 
     1.4400000
  Atom Type and Number
 C     823
  Error in Potential 
     0.6391507
  VdW Radius Used 
     1.9300000
  Atom Type and Number
 H     824
  Error in Potential 
     0.8272274
  VdW Radius Used 
     1.4400000
  Atom Type and Number
 H     825
  Error in Potential 
     0.7632217
  VdW Radius Used 
     1.4400000
  Atom Type and Number
 H     826
  Error in Potential 
     0.6605368
  VdW Radius Used 
     1.4400000
  Atom Type and Number
 C     827
  Error in Potential 
     0.6622623
  VdW Radius Used 
     1.9300000
  Atom Type and Number
 H     828
  Error in Potential 
     0.6381349
  VdW Radius Used 
     1.4400000
  Atom Type and Number
 H     829
  Error in Potential 
     0.7519172
  VdW Radius Used 
     1.4400000
  Atom Type and Number
 H     830
  Error in Potential 
     0.8070196
  VdW Radius Used 
     1.4400000
  Atom Type and Number
 C     831
  Error in Potential 
     0.9100156
  VdW Radius Used 
     1.9300000
  Atom Type and Number
 O     832
  Error in Potential 
     0.4750513
  VdW Radius Used 
     1.7500000
  Atom Type and Number
 N     833
  Error in Potential 
     1.3103397
  VdW Radius Used 
     1.8300000
 Positions
    41.5389306    29.6114878    35.2707097
    41.6628746    29.7114559    35.4574673
 Off-Center Point Charge Charges
    -0.7901251
     0.3290000
 Error in Potential After
     0.3608764
  Atom Type and Number
 H     834
  Error in Potential 
     0.6775004
  VdW Radius Used 
     1.4400000
  Atom Type and Number
 C     835
  Error in Potential 
     1.1392565
  VdW Radius Used 
     1.9300000
  Atom Type and Number
 H     836
  Error in Potential 
     0.7292262
  VdW Radius Used 
     1.4400000
  Atom Type and Number
 C     837
  Error in Potential 
     1.1057440
  VdW Radius Used 
     1.9300000
  Atom Type and Number
 H     838
  Error in Potential 
     0.8983708
  VdW Radius Used 
     1.4400000
  Atom Type and Number
 O     839
  Error in Potential 
     1.0643585
  VdW Radius Used 
     1.7500000
 Positions
    42.4992686    29.5524038    38.8611227
    43.2399182    29.5646516    39.4067308
    42.4053509    29.5499897    38.8019364
 Off-Center Point Charge Charges
    -1.9774174
     0.0792116
     1.1607884
 Error in Potential After
     0.4408097
  Atom Type and Number
 H     840
  Error in Potential 
     0.6032956
  VdW Radius Used 
     1.4400000
  Atom Type and Number
 C     841
  Error in Potential 
     0.5139058
  VdW Radius Used 
     1.9300000
  Atom Type and Number
 H     842
  Error in Potential 
     0.6364197
  VdW Radius Used 
     1.4400000
  Atom Type and Number
 H     843
  Error in Potential 
     0.7942266
  VdW Radius Used 
     1.4400000
  Atom Type and Number
 H     844
  Error in Potential 
     0.7786174
  VdW Radius Used 
     1.4400000
  Atom Type and Number
 C     845
  Error in Potential 
     0.7942143
  VdW Radius Used 
     1.9300000
  Atom Type and Number
 O     846
  Error in Potential 
     0.5203133
  VdW Radius Used 
     1.7500000
  Atom Type and Number
 C     847
  Error in Potential 
     0.9797882
  VdW Radius Used 
     1.9300000
  Atom Type and Number
 C     848
  Error in Potential 
     0.9625252
  VdW Radius Used 
     1.9300000
  Atom Type and Number
 O     849
  Error in Potential 
     0.6821423
  VdW Radius Used 
     1.7500000
  Atom Type and Number
 O     850
  Error in Potential 
     0.6723123
  VdW Radius Used 
     1.7500000
  Atom Type and Number
 N     851
  Error in Potential 
     1.1564519
  VdW Radius Used 
     1.8300000
 Positions
    44.8899025    29.8656707    36.3570977
    44.2083238    30.3671636    36.7181453
    45.5048990    30.4685826    36.6806353
    44.9515479    29.7939763    36.3172554
 Off-Center Point Charge Charges
    -1.5423804
     0.0213739
     0.0257879
     0.9928383
 Error in Potential After
     0.2702166
  Atom Type and Number
 H     852
  Error in Potential 
     0.7498493
  VdW Radius Used 
     1.4400000
  Atom Type and Number
 H     853
  Error in Potential 
     0.9175775
  VdW Radius Used 
     1.4400000
  Atom Type and Number
 C     854
  Error in Potential 
     0.8985793
  VdW Radius Used 
     1.9300000
  Atom Type and Number
 H     855
  Error in Potential 
     0.7842986
  VdW Radius Used 
     1.4400000
  Atom Type and Number
 H     856
  Error in Potential 
     0.8369430
  VdW Radius Used 
     1.4400000
  Atom Type and Number
 C     857
  Error in Potential 
     0.9987682
  VdW Radius Used 
     1.9300000
  Atom Type and Number
 H     858
  Error in Potential 
     0.6927222
  VdW Radius Used 
     1.4400000
  Atom Type and Number
 H     859
  Error in Potential 
     0.8205314
  VdW Radius Used 
     1.4400000
  Atom Type and Number
 C     860
  Error in Potential 
     0.6584080
  VdW Radius Used 
     1.9300000
  Atom Type and Number
 O     861
  Error in Potential 
     0.5802455
  VdW Radius Used 
     1.7500000
  Atom Type and Number
 O     862
  Error in Potential 
     0.7035165
  VdW Radius Used 
     1.7500000
-------------------------------------------------------------

AIM Dipole Before (e.bohr)
dx  =     -215.546743461900348393
dy  =      -96.541871608206662358
dz  =     -107.336561632688272994
magnitude =   259.426037732864472218
AIM Dipole After (e.bohr)
dx  =     -213.848144429776368725
dy  =      -95.831763682325430409
dz  =     -106.608846492000395756
magnitude =   257.449416307123271963
-------------------------------------------------------------

================================================

========================== Dipole Moment Calculation ===========================
                             Type:    Single Molecule
 
Electronic dipole moment (e.bohr):    dx =     -166023.583484625211
                                      dy =     -149053.443258741609
                                      dz =     -133057.661847380485
               Magnitude (e.bohr):              259778.945637738449
 
     Ionic dipole moment (e.bohr):    dx =      165808.833030329959
                                      dy =      148957.148225479992
                                      dz =      132950.538817460008
               Magnitude (e.bohr):              259531.591314430145
 
     Total dipole moment (e.bohr):    dx =        -214.750454295252
                                      dy =         -96.295033261616
                                      dz =        -107.123029920476
               Magnitude (e.bohr):                 258.584289140342
 
================================================================================

===================== Writing canonical molecular orbitals =====================
| Orbital  Energy (eV)  Norm     |
| HOMO-5   -5.07545677  1.000000 | 
| HOMO-4   -4.99203586  1.000000 | 
| HOMO-3   -4.95254946  1.000000 | 
| HOMO-2   -4.91962770  1.000000 | 
| HOMO-1   -4.77158635  1.000000 | 
| HOMO     -4.68538946  1.000000 | 
| LUMO     -1.39950839  1.000000 | 
| LUMO+1   -1.33070870  1.000000 | 
| LUMO+2   -1.32109490  1.000000 | 
| LUMO+3   -1.30649149  1.000000 | 
| LUMO+4   -1.27189528  1.000000 | 
| LUMO+5   -1.26166142  1.000000 | 
================================================================================
 
===================== Density of States (DOS) calculation ======================
Writing "ddec_DOS.txt" ...  done
================================================================================
 
Writing bands to file "ddec.val_bands" ... done

------------------------------ TIMING INFORMATION ------------------------------
AVERAGE TIME:   31824.907s on    160 node(s)                                    
TOTAL TIME:     31824.908s on    160 node(s)                                    
================= AVERAGE TIMINGS FROM ALL NODES (CUMULATIVE) ==================
|| TAG                                    #calls    cpu time   %total  Gflops ||
|| work_imbalance                       :     1        0.00s   0.000%  ------ ||
|| basis_extract_function_from_box      :   285        0.11s   0.000%  ------ ||
|| parallel_prepare_fd_halos_request    : 13050        0.32s   0.001%  ------ ||
|| pseudopotentials_nonlocal_mat        :    20        0.45s   0.001%  ------ ||
|| parallel_prepare_fd_halos_satisfy    : 13050        0.60s   0.002%  ------ ||
|| dense_eigensolve                     :     1        0.67s   0.002%  ------ ||
|| parallel_prepare_fd_halos_alloc      : 13050        0.85s   0.003%  ------ ||
|| restart_kernel_write                 :     9        1.53s   0.005%  ------ ||
|| restart_ngwfs_tightbox_input         :     1        1.60s   0.005%  ------ ||
|| sparse_init                          :     1        2.17s   0.007%  ------ ||
|| openbc_locps_radial                  :     1        3.59s   0.011%  ------ ||
|| eigenstates_calculate                :     1        4.32s   0.014%  ------ ||
|| pseudo_make_structure_factor         :     1        6.13s   0.019%  ------ ||
|| sparse_trace                         :  1979       14.80s   0.046%  ------ ||
|| basis_copy_function_to_box           :  3707       16.39s   0.051%  ------ ||
|| ngwf_gradient_coeffs                 :    10       16.95s   0.053%  ------ ||
|| sparse_hotelling_invert              :    20       23.46s   0.074%  ------ ||
|| restart_kernel_read                  :     1       27.25s   0.086%  ------ ||
|| fourier_apply_box_pair               :   411       40.31s   0.127% 426.285 ||
|| optics_pos_mat_els                   :     1       66.40s   0.209%  ------ ||
|| properties_polarisation              :     1       66.43s   0.209%  ------ ||
|| function_ops_brappd_ketppd           :    20       74.38s   0.234%  ------ ||
|| projectors_init_fftbox_recip         :    30       79.73s   0.251%  ------ ||
|| restart_ngwfs_tightbox_output        :     9       90.72s   0.285%  ------ ||
|| kernel_purify                        :   230       96.65s   0.304%  ------ ||
|| kernel_fix                           :    72       97.74s   0.307%  ------ ||
|| projectors_func_ovlp_box             :    20      101.26s   0.318%  ------ ||
|| lnv_gradient_norm                    :    72      102.63s   0.322%  ------ ||
|| openbc_locps_on_grid                 :     1      106.26s   0.334%  ------ ||
|| integrals_kinetic                    :    20      120.89s   0.380%  ------ ||
|| fourier_apply_cell_backward          :   603      150.78s   0.474%  53.143 ||
|| parallel_prepare_fd_halos_comms_imbal: 13050      164.06s   0.516%  ------ ||
|| projectors_gradient_batch            :    10      201.99s   0.635%  ------ ||
|| fourier_apply_cell_forward           :   601      208.65s   0.656%  38.277 ||
|| basis_dot_function_with_box          : 811.1k     214.62s   0.674%  ------ ||
|| parallel_prepare_fd_halos_clear      : 13050      260.11s   0.817%  ------ ||
|| hamiltonian_energy_components        :     2      339.39s   1.066%  ------ ||
|| xc_energy_potential                  :   150      382.23s   1.201%  ------ ||
|| sparse_product                       :  2881      458.62s   1.441%  ------ ||
|| integrals_locpot_mat_els_batch       :    78      518.21s   1.628%  ------ ||
|| basis_add_function_to_box            : 1.642M     644.24s   2.024%  ------ ||
|| parallel_prepare_fd_halos_comms_wait : 13050      691.33s   2.172%  ------ ||
|| ngwf_gradient_batch                  :    10     1061.85s   3.337%  ------ ||
|| density_batch_row_sums               :   151     1077.02s   3.384%  ------ ||
|| ngwf_gradient_lnv                    :    10     1086.04s   3.413%  ------ ||
|| parallel_prepare_fd_halos            : 13050     1117.37s   3.511%  ------ ||
|| density_fftbox_deposit_to_cell       :  2265     1390.00s   4.368%  ------ ||
|| density_fftbox_interpolate_multiply  :  2265     1612.21s   5.066%  ------ ||
|| potential_apply_to_ngwf_batch        :    78     1627.62s   5.114%  ------ ||
|| finite_difference_derivative         : 13050     1865.05s   5.860%  ------ ||
|| fourier_apply_box                    :  7622     2098.50s   6.594% 710.891 ||
|| integrals_locpot_dbl_grid            :    78     2149.12s   6.753%  ------ ||
|| cell_grid_extract_box                : 31844     2384.59s   7.493%  ------ ||
|| second_order_multigrid_solver        :  1500     2624.00s   8.245%  ------ ||
|| cell_grid_deposit_box                : 10817     2689.52s   8.451%  ------ ||
|| density_batch_interp_deposit         :   151     3021.00s   9.493%  ------ ||
|| density_on_dbl_grid                  :   151     4121.94s  12.952%  ------ ||
|| multigrid_defect_corr_solver         :   150     4535.43s  14.251%  ------ ||
|| multigrid_prepare_bound_cond         :   150     7776.91s  24.437%  ------ ||
|| ddec_main                            :     1     9783.11s  30.740%  ------ ||
|| properties_calculate                 :     1    10024.16s  31.498%  ------ ||
|| hamiltonian_lhxc_calculate           :   148    16983.85s  53.367%  ------ ||
|| lnv_denskernel_optimise_cg           :     9    18001.95s  56.566%  ------ ||
|| ngwf_cg_optimise                     :     1    21490.29s  67.527%  ------ ||
|| total_time                           :     1    31824.91s 100.000%  ------ ||
================================================================================
Overhead of generating timer report: 
- 0 ms averaging over threads,
- 41 ms ensuring consistency across MPI ranks,
- 19 ms printing in order.

Job completed: 30-01-2018 04:17 (-0000)

